/*--------------------------------*- C++ -*----------------------------------*\\
| =========                 |                                                 |
| \\      /  F ield         | OpenFOAM: The Open Source CFD Toolbox           |
|  \\    /   O peration     | Version:  v1706                                 |
|   \\  /    A nd           | Web:      www.OpenFOAM.com                      |
|    \\/     M anipulation  |                                                 |
\\*---------------------------------------------------------------------------*/
FoamFile
{
    version     2.0;
    format      ascii;
    class       surfaceScalarField;
    location    "0.55";
    object      mdot_f;
}
// * * * * * * * * * * * * * * * * * * * * * * * * * * * * * * * * * * * * * //

dimensions      [1 0 -1 0 0 0 0]


internalField   nonuniform List<scalar>
560
(
-0.00065676
-0.1398
-0.0010173
-0.1427
-0.0011721
-0.14561
-0.0010134
-0.14752
-0.00082787
-0.14857
-0.00069095
-0.14916
-0.0005254
-0.14953
-0.00034289
-0.14975
-0.00016665
-0.14988
-0.14997
-0.00044903
-0.13935
-0.00076589
-0.14238
-0.00096651
-0.14541
-0.00097163
-0.14751
-0.0008591
-0.14868
-0.00071999
-0.1493
-0.00055296
-0.14969
-0.00036645
-0.14993
-0.00017883
-0.15007
-0.15014
-0.00041632
-0.13893
-0.00071874
-0.14207
-0.00094011
-0.14518
-0.0010208
-0.14742
-0.00094642
-0.14875
-0.00080324
-0.14944
-0.00062203
-0.14987
-0.00041669
-0.15013
-0.00020435
-0.15027
-0.15034
-0.00051959
-0.13841
-0.00084974
-0.14172
-0.0010745
-0.14494
-0.0011804
-0.1473
-0.0011109
-0.1488
-0.00094656
-0.14958
-0.00073501
-0.15007
-0.00049518
-0.15036
-0.0002436
-0.15051
-0.15058
-0.00076479
-0.13764
-0.0011573
-0.1413
-0.0013604
-0.14472
-0.0014561
-0.14719
-0.0013661
-0.14887
-0.0011627
-0.14977
-0.00090135
-0.15031
-0.00060758
-0.15063
-0.00029974
-0.1508
-0.15086
-0.0011517
-0.13647
-0.001639
-0.14077
-0.0017982
-0.14452
-0.0018627
-0.14709
-0.0017352
-0.14897
-0.0014709
-0.15
-0.0011354
-0.15061
-0.00076341
-0.15097
-0.00037639
-0.15116
-0.15122
-0.0016251
-0.13482
-0.0023007
-0.14004
-0.0024479
-0.14433
-0.0024721
-0.14702
-0.0022739
-0.14913
-0.0019036
-0.15033
-0.0014522
-0.15103
-0.00096837
-0.15142
-0.0004757
-0.15162
-0.15168
-0.0021329
-0.13266
-0.0033597
-0.13875
-0.0035823
-0.14406
-0.0034664
-0.14709
-0.0030702
-0.14948
-0.0024902
-0.15087
-0.0018517
-0.15163
-0.0012134
-0.15203
-0.00059144
-0.1522
-0.15225
-0.0034333
-0.12919
-0.0057773
-0.13633
-0.0057697
-0.14401
-0.0050557
-0.14775
-0.0041499
-0.15033
-0.0031925
-0.15178
-0.0022876
-0.15249
-0.0014635
-0.15281
-0.00070483
-0.15292
-0.15294
-0.0092944
-0.11985
-0.010905
-0.13465
-0.0092108
-0.14564
-0.0070744
-0.14983
-0.0052926
-0.15207
-0.0038394
-0.15319
-0.0026472
-0.15364
-0.0016526
-0.15377
-0.00078599
-0.15375
-0.15371
0.020451
-0.14025
0.024588
-0.13872
0.025494
-0.1465
0.024301
-0.1486
0.021524
-0.14925
0.017884
-0.14951
0.013747
-0.14947
0.0093059
-0.14929
0.0046957
-0.14911
-0.149
0.0122
-0.15242
0.017208
-0.14368
0.018684
-0.14793
0.018183
-0.14806
0.01636
-0.14739
0.013722
-0.14684
0.010602
-0.14632
0.0071998
-0.14586
0.0036419
-0.14552
-0.14534
0.0071792
-0.15956
0.01156
-0.14802
0.01288
-0.14922
0.012698
-0.14785
0.011551
-0.14622
0.0097657
-0.14503
0.0075826
-0.14411
0.0051654
-0.14342
0.0026192
-0.14295
-0.14271
0.003734
-0.16327
0.0069647
-0.15122
0.0078279
-0.15006
0.0077494
-0.14774
0.0070899
-0.14554
0.0060233
-0.14394
0.0046926
-0.14276
0.0032041
-0.14191
0.0016284
-0.14136
-0.14108
0.00098791
-0.16424
0.0028637
-0.15307
0.0032145
-0.15039
0.0031504
-0.14767
0.0028798
-0.14525
0.0024454
-0.1435
0.0019039
-0.1422
0.0012996
-0.14129
0.0006621
-0.14071
-0.14041
-0.0015097
-0.16272
-0.0011185
-0.15346
-0.0012455
-0.15026
-0.0013054
-0.1476
-0.0012211
-0.14533
-0.0010601
-0.14365
-0.00084197
-0.14241
-0.00058256
-0.14154
-0.00029533
-0.14099
-0.14071
-0.0040698
-0.15865
-0.0052183
-0.15231
-0.0058134
-0.14966
-0.0058491
-0.14756
-0.005394
-0.14578
-0.004619
-0.14442
-0.0036248
-0.14341
-0.0024875
-0.14268
-0.0012631
-0.14221
-0.14197
-0.0068205
-0.15183
-0.0096159
-0.14952
-0.010773
-0.14851
-0.01075
-0.14759
-0.0098458
-0.14669
-0.0083711
-0.1459
-0.0065306
-0.14525
-0.0044628
-0.14475
-0.0022622
-0.14441
-0.14424
-0.010437
-0.14139
-0.015252
-0.14472
-0.016835
-0.14694
-0.016434
-0.148
-0.014803
-0.14833
-0.012436
-0.14828
-0.0096223
-0.14807
-0.00654
-0.14784
-0.0033054
-0.14766
-0.14755
-0.019191
-0.12221
-0.024492
-0.13944
-0.024919
-0.14652
-0.023212
-0.14971
-0.020364
-0.15119
-0.016841
-0.15181
-0.012905
-0.15202
-0.0087188
-0.15204
-0.0043916
-0.15199
-0.15195
0.011279
-0.1335
0.011825
-0.14
0.010208
-0.14492
0.0082224
-0.14774
0.0063615
-0.14934
0.004741
-0.1502
0.0033476
-0.15063
0.0021313
-0.15083
0.0010323
-0.1509
-0.15092
0.0055645
-0.13908
0.0074053
-0.14186
0.0072201
-0.14474
0.0063025
-0.14684
0.0051623
-0.14821
0.0040067
-0.14906
0.0029104
-0.14955
0.0018878
-0.14982
0.00092447
-0.14995
-0.15
0.003067
-0.14215
0.0046539
-0.14346
0.0050088
-0.14511
0.004684
-0.14653
0.0040324
-0.14757
0.003246
-0.14828
0.0024204
-0.14874
0.0015973
-0.14901
0.00078983
-0.14916
-0.14922
0.0018247
-0.14399
0.002993
-0.14465
0.0034574
-0.14559
0.0034163
-0.1465
0.0030667
-0.14724
0.0025472
-0.14778
0.0019435
-0.14815
0.0013027
-0.14838
0.00064943
-0.14852
-0.14858
0.001144
-0.14514
0.0019674
-0.14549
0.0023867
-0.14603
0.0024597
-0.14659
0.002284
-0.14707
0.0019472
-0.14745
0.0015148
-0.14773
0.0010291
-0.14791
0.00051648
-0.14802
-0.14806
0.00074045
-0.14589
0.0013109
-0.14607
0.0016448
-0.14637
0.0017486
-0.1467
0.0016671
-0.14701
0.0014516
-0.14725
0.0011472
-0.14743
0.00078784
-0.14756
0.00039751
-0.14764
-0.14767
0.00048489
-0.14638
0.00087344
-0.14648
0.0011214
-0.14664
0.0012192
-0.14681
0.0011858
-0.14698
0.0010497
-0.14713
0.00083996
-0.14724
0.00058172
-0.14731
0.00029447
-0.14736
-0.14738
0.00031285
-0.14671
0.00056875
-0.14675
0.00074154
-0.14682
0.00081898
-0.1469
0.000808
-0.14699
0.000724
-0.14705
0.00058485
-0.14711
0.00040759
-0.14715
0.00020657
-0.14717
-0.14718
0.00018882
-0.1469
0.00034451
-0.14692
0.00045351
-0.14694
0.00050602
-0.14697
0.00050387
-0.14699
0.00045512
-0.14702
0.00036996
-0.14704
0.00025894
-0.14705
0.00013129
-0.14706
-0.14706
8.9632e-05
0.00016561
0.00021893
0.00024528
0.00024515
0.00022213
0.00018101
0.00012709
6.5572e-05
)
;

boundaryField
{
    bump
    {
        type             calculated;
        value            uniform 0;
    }
    outlet
    {
        type             calculated;
        value            nonuniform List<scalar>
10
(
0.14978
0.1497
0.14957
0.14936
0.14902
0.14841
0.14744
0.14581
0.14293
0.14025
)
;
    }
    inlet
    {
        type             calculated;
        value            nonuniform List<scalar>
10
(
-0.147
-0.147
-0.147
-0.147
-0.147
-0.147
-0.147
-0.147
-0.147
-0.147
)
;
    }
    side1
    {
        type             calculated;
        value            uniform 0;
    }
    side2
    {
        type             calculated;
        value            uniform 0;
    }
    symmetry
    {
        type             calculated;
        value            uniform 0;
    }
    top
    {
        type             calculated;
        value            uniform 0;
    }
}

// ************************************************************************* //
