/*--------------------------------*- C++ -*----------------------------------*\\
| =========                 |                                                 |
| \\      /  F ield         | OpenFOAM: The Open Source CFD Toolbox           |
|  \\    /   O peration     | Version:  v1706                                 |
|   \\  /    A nd           | Web:      www.OpenFOAM.com                      |
|    \\/     M anipulation  |                                                 |
\\*---------------------------------------------------------------------------*/
FoamFile
{
    version     2.0;
    format      ascii;
    class       volScalarField;
    location    "0.55";
    object      p;
}
// * * * * * * * * * * * * * * * * * * * * * * * * * * * * * * * * * * * * * //

dimensions      [1 -1 -2 0 0 0 0]


internalField   nonuniform List<scalar>
300
(
18.0453
10.3528
7.1545
-4.959
-10.4479
-10.8398
-11.5088
-11.8923
-11.8226
-11.6749
22.459
12.5749
8.3456
-8.7924
-18.7322
-20.2039
-21.2283
-21.8944
-21.9434
-21.8738
11.3636
3.0749
3.5617
-13.0006
-25.7506
-28.2557
-29.5039
-30.4206
-30.6811
-30.7755
-12.978
-16.763
-5.5968
-16.0214
-29.8639
-33.6418
-35.5545
-37.1717
-38.0071
-38.4598
-40.2486
-39.263
-13.8958
-14.2824
-28.7835
-35.2613
-39.1509
-42.377
-44.3779
-45.4882
-43.8418
-45.9406
-11.7345
-3.6338
-21.2072
-33.4254
-41.3257
-47.2295
-50.9555
-52.9675
24.5664
-7.3719
10.8869
15.9828
-10.1614
-31.5809
-45.1054
-54.1561
-59.6277
-62.4732
218.5245
99.2336
50.6912
32.6857
-6.292
-37.1664
-55.3414
-66.246
-72.4349
-75.5697
506.4612
236.5431
71.0378
19.0287
-26.0693
-58.9912
-76.577
-85.8092
-90.5865
-93.0029
571.4642
248.6845
6.1737
-53.1301
-80.6909
-100.6947
-109.4998
-112.5257
-113.4319
-114.0286
-118.6484
-18.1498
-164.8637
-175.9712
-160.642
-154.8978
-148.6542
-142.4454
-138.0373
-136.2207
-581.9123
-257.8725
-305.7635
-277.199
-231.0757
-203.7497
-183.7852
-169.2183
-159.9941
-155.8619
-904.417
-469.3066
-420.678
-358.1941
-288.5132
-243.4919
-211.6533
-189.7731
-176.3363
-170.1442
-1109.4978
-632.9822
-498.1672
-409.6791
-324.1609
-267.0991
-227.154
-200.2799
-183.9728
-176.364
-1201.7432
-740.5494
-535.6031
-427.4586
-333.607
-270.5432
-227.033
-198.1885
-180.8491
-172.724
-1158.5302
-770.6392
-524.5338
-406.2014
-313.6232
-251.8843
-210.109
-182.773
-166.4805
-158.826
-921.7462
-678.6887
-444.8239
-338.1361
-261.897
-211.3228
-177.4078
-155.2695
-142.079
-135.8071
-425.6497
-414.6429
-278.1058
-220.9185
-180.8092
-152.5175
-132.4368
-118.7347
-110.3127
-106.1181
286.7494
-3.3898
-48.4628
-74.8104
-83.7909
-84.1038
-81.0505
-77.4591
-74.6702
-72.9211
825.8223
341.6255
143.9827
51.2398
4.5921
-19.0102
-30.6753
-36.2327
-38.725
-39.3724
526.8495
342.0587
201.1232
115.4831
63.166
31.2385
12.0295
0.76148
-5.4461
-7.9993
379.5913
299.2706
211.714
144.7991
97.7443
65.7232
44.5139
31.0071
23.0847
19.5733
294.5214
254.9302
202.4327
154.7688
116.8783
88.6296
68.503
54.9088
46.5986
42.7867
242.2405
220.7212
188.5136
155.5112
126.5681
103.2762
85.6632
73.1935
65.317
61.6231
208.6442
195.9704
175.4677
152.5939
130.9594
112.4193
97.6858
86.8518
79.8167
76.454
186.4719
178.4853
164.8867
148.7646
132.6161
118.0578
106.0002
96.8543
90.7777
87.8254
171.7529
166.3938
156.956
145.2577
133.0163
121.5324
111.6893
104.0219
98.8313
96.2756
162.2329
158.382
151.4453
142.5613
132.9508
123.6547
115.4672
108.9478
104.4603
102.2221
156.6971
153.6658
148.1192
140.8561
132.8109
124.8556
117.7137
111.9365
107.9079
105.872
154.4693
151.7739
146.7782
140.1676
132.7596
125.3545
118.644
113.1733
109.3312
107.3543
)
;

boundaryField
{
    bump
    {
        type             zeroGradient;
    }
    outlet
    {
        type             fixedValue;
        value            uniform 0;
    }
    inlet
    {
        type             zeroGradient;
    }
    side1
    {
        type             empty;
    }
    side2
    {
        type             empty;
    }
    symmetry
    {
        type             symmetry;
    }
    top
    {
        type             symmetry;
    }
}

// ************************************************************************* //
