/*--------------------------------*- C++ -*----------------------------------*\\
| =========                 |                                                 |
| \\      /  F ield         | OpenFOAM: The Open Source CFD Toolbox           |
|  \\    /   O peration     | Version:  v1706                                 |
|   \\  /    A nd           | Web:      www.OpenFOAM.com                      |
|    \\/     M anipulation  |                                                 |
\\*---------------------------------------------------------------------------*/
FoamFile
{
    version     2.0;
    format      ascii;
    class       volVectorField;
    location    "0.55";
    object      U;
}
// * * * * * * * * * * * * * * * * * * * * * * * * * * * * * * * * * * * * * //

dimensions      [0 1 -1 0 0 0 0]


internalField   nonuniform List<vector>
300
(
(57.2434 -0.43067 0.012192)
(58.3397 -0.31191 0.0086811)
(59.5134 -0.63715 0.0050273)
(60.178 -0.50093 0.0031306)
(60.576 -0.32054 0.0019683)
(60.8252 -0.34078 0.0012315)
(60.965 -0.27502 0.00075775)
(61.0473 -0.19289 0.00054787)
(61.1016 -0.10745 0.0018885)
(61.1367 -0.035752 0.0018823)
(56.9245 -0.41264 0.012984)
(58.1429 -0.27884 0.0092541)
(59.4115 -0.57867 0.0054588)
(60.2871 -0.52195 0.0034275)
(60.7589 -0.32534 0.0021813)
(60.9984 -0.35034 0.0013912)
(61.1428 -0.29036 0.00088269)
(61.2242 -0.20468 0.00065138)
(61.2678 -0.1147 0.0019475)
(61.2905 -0.037961 0.00194)
(56.8516 -0.43126 0.013551)
(58.0844 -0.30805 0.0096221)
(59.3655 -0.58253 0.0057025)
(60.293 -0.60818 0.0035503)
(60.8141 -0.36665 0.002229)
(61.0677 -0.37833 0.0013913)
(61.2202 -0.32173 0.0008521)
(61.3062 -0.22814 0.00060228)
(61.3496 -0.12887 0.0018538)
(61.3687 -0.042656 0.0018471)
(56.8578 -0.4752 0.014096)
(58.0844 -0.36963 0.0099929)
(59.3412 -0.61618 0.0059712)
(60.2857 -0.74615 0.003714)
(60.8576 -0.45154 0.0023276)
(61.1336 -0.42995 0.001449)
(61.2976 -0.37015 0.00088416)
(61.3908 -0.26404 0.00061925)
(61.4359 -0.1505 0.0018269)
(61.4529 -0.049871 0.0018232)
(56.8869 -0.54532 0.014532)
(58.116 -0.44868 0.010283)
(59.3269 -0.6504 0.0061842)
(60.2582 -0.9199 0.0038401)
(60.882 -0.58371 0.0024003)
(61.1919 -0.51196 0.0014887)
(61.375 -0.44031 0.00090391)
(61.4809 -0.31566 0.00062774)
(61.5319 -0.18166 0.0017927)
(61.5491 -0.060411 0.0017946)
(56.8071 -0.65567 0.014852)
(58.0974 -0.55205 0.010488)
(59.2828 -0.6672 0.0063374)
(60.1913 -1.1183 0.0039258)
(60.8803 -0.77192 0.0024453)
(61.245 -0.63615 0.0015091)
(61.46 -0.53996 0.00091069)
(61.5857 -0.38833 0.00062714)
(61.647 -0.22545 0.0017511)
(61.6668 -0.075141 0.0017612)
(56.3023 -0.85114 0.015053)
(57.8358 -0.74526 0.010606)
(59.1344 -0.69193 0.0064302)
(60.0704 -1.3548 0.0039706)
(60.8618 -1.0401 0.0024624)
(61.3119 -0.82276 0.0015105)
(61.5731 -0.67957 0.00090465)
(61.723 -0.48664 0.00061725)
(61.7953 -0.28372 0.0017022)
(61.8182 -0.094581 0.0017229)
(54.7684 -1.2615 0.015139)
(57.0301 -1.2606 0.010644)
(58.8358 -0.87246 0.0064668)
(59.9473 -1.6986 0.0039777)
(60.8894 -1.4293 0.0024538)
(61.4441 -1.0941 0.0014943)
(61.7515 -0.86526 0.00088679)
(61.918 -0.60895 0.00059841)
(61.9941 -0.35359 0.0016465)
(62.0165 -0.11755 0.0016799)
(51.7951 -2.2248 0.015123)
(55.6322 -2.7013 0.010621)
(58.5809 -1.5677 0.0064599)
(60.0328 -2.2685 0.0039542)
(61.1058 -1.963 0.0024239)
(61.7239 -1.4446 0.0014634)
(62.0396 -1.081 0.00085896)
(62.1933 -0.73959 0.00057155)
(62.2548 -0.42464 0.0015847)
(62.2683 -0.14032 0.0016324)
(49.4957 -4.2471 0.015043)
(54.7754 -5.9298 0.010585)
(59.014 -3.1663 0.0064324)
(60.6836 -3.0818 0.0039094)
(61.6785 -2.5556 0.0023764)
(62.2194 -1.7989 0.0014195)
(62.462 -1.2734 0.00082236)
(62.5544 -0.84411 0.00053753)
(62.5743 -0.47788 0.0015174)
(62.5673 -0.15686 0.0015809)
(54.7628 -6.7498 0.014904)
(56.6002 -10.262 0.010509)
(60.6373 -5.2409 0.0063497)
(61.9743 -3.7662 0.0038161)
(62.5915 -2.9389 0.0022905)
(62.8913 -2.007 0.0013488)
(62.9767 -1.3616 0.00076918)
(62.9656 -0.87771 0.00049264)
(62.9244 -0.4908 0.0014427)
(62.8906 -0.1604 0.0015259)
(63.388 -5.9452 0.014103)
(60.8005 -10.9177 0.0091729)
(63.3809 -5.3741 0.0051694)
(63.8029 -3.5525 0.0030345)
(63.7709 -2.7373 0.0017998)
(63.6837 -1.8192 0.0010517)
(63.5401 -1.2122 0.00060009)
(63.3912 -0.76911 0.00041104)
(63.2732 -0.42713 0.0014127)
(63.2061 -0.13713 0.0014654)
(69.1063 -3.7298 0.012607)
(64.4051 -9.2136 0.0076519)
(65.6012 -4.6755 0.004047)
(65.2849 -2.7972 0.0023474)
(64.7539 -2.1796 0.0013807)
(64.35 -1.4161 0.00080201)
(64.0114 -0.92867 0.00045977)
(63.7452 -0.57847 0.00034383)
(63.5615 -0.31874 0.0013678)
(63.4647 -0.099989 0.0013937)
(72.7298 -0.91799 0.010894)
(67.2588 -6.0163 0.0061198)
(67.2199 -3.3558 0.0031154)
(66.362 -1.6379 0.0018248)
(65.4759 -1.3319 0.0010835)
(64.8332 -0.82716 0.00063653)
(64.3431 -0.52486 0.00037185)
(63.9859 -0.31458 0.00030539)
(63.7515 -0.1706 0.0013157)
(63.6317 -0.051132 0.0013172)
(74.5692 2.0569 0.0099282)
(69.1177 -1.9671 0.0051784)
(68.1169 -1.553 0.0026606)
(66.9255 -0.23584 0.0015961)
(65.8429 -0.28996 0.00096602)
(65.0607 -0.11143 0.00058434)
(64.4824 -0.037156 0.00035421)
(64.0732 0.00011629 0.00030702)
(63.8105 0.0049196 0.0012643)
(63.6781 0.0054235 0.0012404)
(74.6857 4.8784 0.0096754)
(69.828 2.3828 0.0049384)
(68.2411 0.624 0.0026144)
(66.9172 1.2584 0.0016098)
(65.8012 0.83691 0.00099215)
(64.9905 0.65679 0.00061502)
(64.3988 0.48389 0.00038254)
(63.9848 0.33359 0.00033153)
(63.7213 0.19005 0.0012063)
(63.5891 0.06447 0.001163)
(72.9068 7.2605 0.008939)
(69.1394 6.4404 0.0046774)
(67.5104 2.9988 0.0024541)
(66.2967 2.706 0.0015126)
(65.3266 1.9187 0.00094139)
(64.612 1.3896 0.00058914)
(64.0891 0.97749 0.00037001)
(63.7215 0.64792 0.00032397)
(63.4866 0.36438 0.0011213)
(63.3682 0.12034 0.0010785)
(68.7085 8.796 0.0064816)
(66.7446 9.5833 0.0035835)
(65.8048 5.1765 0.0017773)
(65.0616 3.9328 0.0010753)
(64.4472 2.7965 0.00068175)
(63.9616 1.9842 0.00043261)
(63.5865 1.377 0.00027375)
(63.3116 0.9031 0.00025452)
(63.131 0.50676 0.0010092)
(63.0379 0.16645 0.00098559)
(61.6628 8.8876 0.0030571)
(62.6046 10.8596 0.0019382)
(63.2242 6.5158 0.0008871)
(63.3663 4.6302 0.00054316)
(63.2943 3.2952 0.00037517)
(63.1363 2.3386 0.00025287)
(62.9613 1.6256 0.00016349)
(62.8079 1.0675 0.0001678)
(62.6967 0.60118 0.00089539)
(62.6353 0.19757 0.0008937)
(53.7799 6.8212 0.0010129)
(58.2213 9.1396 0.00089471)
(60.6285 6.283 0.00031558)
(61.6899 4.5294 0.00018593)
(62.136 3.3134 0.0001443)
(62.2898 2.4058 0.00010574)
(62.3081 1.7002 7.0721e-05)
(62.2738 1.129 8.2422e-05)
(62.2318 0.64139 0.00079034)
(62.2026 0.21107 0.00080737)
(52.4445 2.6442 0.00069508)
(56.9445 4.9173 0.00073109)
(59.3656 4.6672 0.00014543)
(60.623 3.8069 3.9028e-05)
(61.2715 2.9737 2.3439e-05)
(61.5892 2.2497 1.7021e-05)
(61.7282 1.6328 1.1212e-05)
(61.7766 1.1027 6.9786e-06)
(61.7854 0.63291 0.0006988)
(61.7803 0.2072 0.00073033)
(55.8192 1.2521 0.00065549)
(57.5952 2.769 0.00065268)
(59.0899 3.0857 6.9906e-05)
(60.0702 2.81 5.7337e-06)
(60.6752 2.3564 7.2351e-07)
(61.0298 1.8715 3.9549e-07)
(61.2251 1.4056 3.5013e-07)
(61.3246 0.97168 3.2844e-07)
(61.3699 0.56623 0.00063319)
(61.385 0.18652 0.00065869)
(57.486 0.67241 0.00058422)
(58.2697 1.6421 0.00058285)
(59.1519 2.0333 3.9989e-05)
(59.8474 2.0178 2.4149e-06)
(60.3341 1.7991 3.617e-07)
(60.6518 1.4929 2.4134e-07)
(60.8471 1.1572 2.1126e-07)
(60.9596 0.81757 1.9448e-07)
(61.0185 0.48318 0.00056865)
(61.042 0.16002 0.00058619)
(58.4465 0.39329 0.00051208)
(58.8267 1.0195 0.00051138)
(59.3331 1.3541 2.2417e-05)
(59.7921 1.4314 1.0135e-06)
(60.1484 1.3412 1.9444e-07)
(60.4012 1.1553 1.3929e-07)
(60.5688 0.92044 1.146e-07)
(60.6727 0.66311 1.0027e-07)
(60.7308 0.39689 0.00050188)
(60.7556 0.13206 0.00051331)
(59.0366 0.24378 0.00043944)
(59.2323 0.65544 0.00043909)
(59.5219 0.91195 1.2229e-05)
(59.8115 1.0091 4.3522e-07)
(60.055 0.9826 1.11e-07)
(60.2396 0.87271 7.5244e-08)
(60.3691 0.71157 5.259e-08)
(60.4535 0.52124 3.9171e-08)
(60.5029 0.31542 0.00043317)
(60.5247 0.10539 0.00044019)
(59.4151 0.15659 0.00036652)
(59.5185 0.43052 0.00036634)
(59.682 0.61778 6.3918e-06)
(59.8568 0.70622 2.0252e-07)
(60.0129 0.70802 6.8931e-08)
(60.1374 0.64426 3.8644e-08)
(60.2286 0.53532 1.672e-08)
(60.2903 0.39753 3.3352e-09)
(60.3275 0.24274 0.00036294)
(60.3442 0.081391 0.00036693)
(59.6638 0.102 0.00029343)
(59.7175 0.28422 0.00029334)
(59.806 0.41621 3.1244e-06)
(59.9051 0.48688 1.1373e-07)
(59.9974 0.49871 4.943e-08)
(60.0738 0.46231 2.054e-08)
(60.1317 0.38989 -1.2461e-09)
(60.1718 0.29271 -1.5054e-08)
(60.1965 0.18002 0.00029154)
(60.2077 0.060517 0.0002936)
(59.8273 0.065515 0.00022022)
(59.8531 0.18394 0.00022018)
(59.8965 0.27285 1.3802e-06)
(59.9466 0.32432 8.3721e-08)
(59.9945 0.33733 4.228e-08)
(60.0352 0.31697 1.3603e-08)
(60.0667 0.27033 -8.3428e-09)
(60.089 0.20466 -2.2767e-08)
(60.1028 0.12655 0.00021931)
(60.1089 0.042623 0.00022023)
(59.93 0.039303 0.00014693)
(59.9404 0.11078 0.00014691)
(59.9574 0.1656 5.3172e-07)
(59.9773 0.19891 7.6425e-08)
(59.9966 0.20903 4.1279e-08)
(60.0133 0.19822 1.2449e-08)
(60.0264 0.17035 -9.8061e-09)
(60.0358 0.12973 -2.4882e-08)
(60.0415 0.080567 0.00014651)
(60.0436 0.027198 0.00014683)
(59.9841 0.018368 5.7365e-08)
(59.9866 0.052322 4.5351e-08)
(59.9904 0.078816 -7.3306e-05)
(59.9948 0.095213 -7.3408e-05)
(59.9992 0.10064 -7.3429e-05)
(60.0029 0.095941 -7.3447e-05)
(60.0059 0.082818 -7.3461e-05)
(60.008 0.06331 -7.3471e-05)
(60.0093 0.039633 -9.3385e-08)
(60.0095 0.013487 -3.2872e-08)
)
;

boundaryField
{
    bump
    {
        type             noSlip;
    }
    outlet
    {
        type             zeroGradient;
    }
    inlet
    {
        type             fixedValue;
        value            uniform (60 0 0);
    }
    side1
    {
        type             empty;
    }
    side2
    {
        type             empty;
    }
    symmetry
    {
        type             symmetry;
    }
    top
    {
        type             symmetry;
    }
}

// ************************************************************************* //
