/*--------------------------------*- C++ -*----------------------------------*\\
| =========                 |                                                 |
| \\      /  F ield         | OpenFOAM: The Open Source CFD Toolbox           |
|  \\    /   O peration     | Version:  v1706                                 |
|   \\  /    A nd           | Web:      www.OpenFOAM.com                      |
|    \\/     M anipulation  |                                                 |
\\*---------------------------------------------------------------------------*/
FoamFile
{
    version     2.0;
    format      ascii;
    class       surfaceScalarField;
    location    "1.1";
    object      mdot_f;
}
// * * * * * * * * * * * * * * * * * * * * * * * * * * * * * * * * * * * * * //

dimensions      [1 0 -1 0 0 0 0]


internalField   nonuniform List<scalar>
560
(
-0.00034303
-0.14047
-0.00050486
-0.14282
-0.00071033
-0.14578
-0.00077244
-0.14766
-0.00072107
-0.14853
-0.00065526
-0.14887
-0.00052645
-0.14904
-0.0003761
-0.14905
-0.00019644
-0.149
-0.14896
-0.00034963
-0.14012
-0.0005675
-0.1426
-0.0007496
-0.14559
-0.00083401
-0.14757
-0.00080795
-0.14856
-0.00073137
-0.14894
-0.0005953
-0.14917
-0.00041983
-0.14922
-0.00021784
-0.14921
-0.14918
-0.00042166
-0.1397
-0.00069131
-0.14233
-0.0008892
-0.1454
-0.00098914
-0.14747
-0.00096241
-0.14858
-0.00086608
-0.14904
-0.00070467
-0.14934
-0.00049391
-0.14943
-0.00025504
-0.14945
-0.14943
-0.00056885
-0.13913
-0.00091613
-0.14198
-0.0011433
-0.14517
-0.0012522
-0.14736
-0.0012021
-0.14863
-0.0010649
-0.14918
-0.00085952
-0.14954
-0.00059825
-0.14969
-0.0003069
-0.14974
-0.14974
-0.00083276
-0.1383
-0.0012905
-0.14152
-0.001534
-0.14492
-0.0016318
-0.14726
-0.001535
-0.14873
-0.0013332
-0.14938
-0.0010633
-0.14981
-0.00073474
-0.15002
-0.0003749
-0.1501
-0.15012
-0.0012456
-0.13705
-0.0018335
-0.14093
-0.0020584
-0.1447
-0.0021252
-0.1472
-0.001968
-0.14888
-0.0016797
-0.14967
-0.0013216
-0.15017
-0.00090639
-0.15044
-0.00046017
-0.15055
-0.15058
-0.0017492
-0.1353
-0.0025169
-0.14016
-0.0027312
-0.14448
-0.0027698
-0.14716
-0.0025394
-0.14911
-0.0021313
-0.15007
-0.0016485
-0.15065
-0.0011171
-0.15097
-0.00056262
-0.1511
-0.15114
-0.0022533
-0.13305
-0.0035237
-0.13889
-0.0038083
-0.14419
-0.0037456
-0.14722
-0.0033406
-0.14952
-0.0027219
-0.15069
-0.0020483
-0.15132
-0.0013614
-0.15165
-0.00067792
-0.15178
-0.15182
-0.0035507
-0.12949
-0.0059123
-0.13653
-0.005947
-0.14416
-0.0053112
-0.14785
-0.0044189
-0.15041
-0.0034232
-0.15168
-0.0024787
-0.15227
-0.0016063
-0.15252
-0.00078847
-0.1526
-0.1526
-0.0095284
-0.11996
-0.011143
-0.13491
-0.0093994
-0.1459
-0.0073086
-0.14994
-0.005556
-0.15216
-0.0040677
-0.15317
-0.0028299
-0.1535
-0.0017861
-0.15357
-0.00086354
-0.15352
-0.15347
0.020614
-0.14058
0.024628
-0.13892
0.025441
-0.14671
0.024141
-0.14864
0.021325
-0.14934
0.017704
-0.14955
0.013595
-0.14939
0.0091905
-0.14916
0.0046277
-0.14896
-0.14884
0.012289
-0.15286
0.017266
-0.1439
0.018719
-0.14816
0.018129
-0.14805
0.016228
-0.14744
0.013576
-0.14689
0.010475
-0.14629
0.0071042
-0.14579
0.003585
-0.14544
-0.14525
0.0072072
-0.16007
0.011591
-0.14828
0.012917
-0.14949
0.012702
-0.14783
0.011484
-0.14622
0.0096635
-0.14507
0.0074844
-0.14411
0.0050894
-0.14339
0.0025728
-0.14292
-0.14268
0.0037049
-0.16377
0.0069259
-0.1515
0.0077915
-0.15035
0.0077356
-0.14777
0.0070438
-0.14553
0.0059474
-0.14398
0.0046155
-0.14278
0.0031427
-0.14192
0.0015902
-0.14137
-0.14109
0.00090997
-0.16468
0.0027464
-0.15333
0.0030734
-0.15068
0.0030622
-0.14776
0.0028078
-0.14527
0.0023686
-0.14354
0.0018339
-0.14224
0.0012458
-0.14133
0.00062949
-0.14075
-0.14046
-0.0015968
-0.16309
-0.0012677
-0.15366
-0.0014516
-0.15049
-0.0014654
-0.14775
-0.0013341
-0.1454
-0.0011515
-0.14372
-0.00091359
-0.14248
-0.00063314
-0.14161
-0.00032383
-0.14106
-0.14078
-0.0041323
-0.15895
-0.0053203
-0.15247
-0.0059794
-0.14983
-0.0060064
-0.14772
-0.0055145
-0.14589
-0.0047129
-0.14452
-0.0036949
-0.1435
-0.0025346
-0.14277
-0.0012878
-0.1423
-0.14207
-0.0068645
-0.15209
-0.009654
-0.14968
-0.010853
-0.14863
-0.010856
-0.14771
-0.009944
-0.1468
-0.0084528
-0.14601
-0.0065931
-0.14536
-0.0045045
-0.14486
-0.0022829
-0.14452
-0.14435
-0.010512
-0.14158
-0.015302
-0.14489
-0.016885
-0.14705
-0.016505
-0.14809
-0.014878
-0.14843
-0.012501
-0.14838
-0.0096733
-0.14818
-0.0065741
-0.14796
-0.0033214
-0.14778
-0.14767
-0.01933
-0.12225
-0.024629
-0.13959
-0.025016
-0.14666
-0.023285
-0.14982
-0.020425
-0.15129
-0.016892
-0.15192
-0.012944
-0.15213
-0.0087451
-0.15216
-0.0044032
-0.15212
-0.15208
0.011314
-0.13356
0.011826
-0.1401
0.010192
-0.14503
0.0082074
-0.14784
0.0063495
-0.14943
0.0047327
-0.1503
0.0033434
-0.15074
0.0021303
-0.15094
0.0010344
-0.15102
-0.15104
0.005579
-0.13914
0.0074126
-0.14194
0.0072166
-0.14483
0.0062999
-0.14692
0.0051623
-0.14829
0.0040086
-0.14915
0.0029143
-0.14965
0.0018929
-0.14992
0.00093013
-0.15006
-0.15011
0.003072
-0.14221
0.0046622
-0.14353
0.0050136
-0.14518
0.0046894
-0.1466
0.0040402
-0.14765
0.003255
-0.14836
0.0024297
-0.14882
0.0016067
-0.1491
0.00079784
-0.14925
-0.14931
0.0018267
-0.14404
0.003001
-0.1447
0.0034665
-0.14565
0.0034268
-0.14656
0.0030791
-0.1473
0.0025605
-0.14784
0.0019563
-0.14822
0.0013143
-0.14845
0.00065877
-0.14859
-0.14865
0.0011451
-0.14518
0.001975
-0.14553
0.0023976
-0.14607
0.0024726
-0.14663
0.0022984
-0.14712
0.0019625
-0.14751
0.0015292
-0.14778
0.0010415
-0.14797
0.00052625
-0.14808
-0.14813
0.00074132
-0.14592
0.001318
-0.14611
0.0016556
-0.14641
0.0017618
-0.14674
0.0016817
-0.14704
0.0014668
-0.14729
0.0011615
-0.14748
0.00080013
-0.14761
0.00040702
-0.14768
-0.14772
0.00048544
-0.14641
0.00087978
-0.1465
0.0011311
-0.14666
0.0012314
-0.14684
0.0011992
-0.14701
0.0010633
-0.14716
0.00085288
-0.14727
0.00059286
-0.14735
0.00030321
-0.14739
-0.14742
0.0003129
-0.14672
0.00057398
-0.14676
0.00074952
-0.14683
0.000829
-0.14692
0.00081908
-0.147
0.00073521
-0.14707
0.0005954
-0.14713
0.00041673
-0.14717
0.00021401
-0.14719
-0.1472
0.00018857
-0.14691
0.00034841
-0.14692
0.00045936
-0.14695
0.00051324
-0.14697
0.00051189
-0.147
0.00046318
-0.14702
0.00037751
-0.14704
0.00026545
-0.14705
0.0001367
-0.14706
-0.14707
9.0521e-05
0.00016785
0.0002222
0.00024927
0.00024954
0.00022649
0.00018503
0.00013028
6.7096e-05
)
;

boundaryField
{
    bump
    {
        type             calculated;
        value            uniform 0;
    }
    outlet
    {
        type             calculated;
        value            nonuniform List<scalar>
10
(
0.14878
0.14884
0.14891
0.14893
0.14883
0.14852
0.14775
0.14597
0.14293
0.14074
)
;
    }
    inlet
    {
        type             calculated;
        value            nonuniform List<scalar>
10
(
-0.147
-0.147
-0.147
-0.147
-0.147
-0.147
-0.147
-0.147
-0.147
-0.147
)
;
    }
    side1
    {
        type             calculated;
        value            uniform 0;
    }
    side2
    {
        type             calculated;
        value            uniform 0;
    }
    symmetry
    {
        type             calculated;
        value            uniform 0;
    }
    top
    {
        type             calculated;
        value            uniform 0;
    }
}

// ************************************************************************* //
