/*--------------------------------*- C++ -*----------------------------------*\\
| =========                 |                                                 |
| \\      /  F ield         | OpenFOAM: The Open Source CFD Toolbox           |
|  \\    /   O peration     | Version:  v1706                                 |
|   \\  /    A nd           | Web:      www.OpenFOAM.com                      |
|    \\/     M anipulation  |                                                 |
\\*---------------------------------------------------------------------------*/
FoamFile
{
    version     2.0;
    format      ascii;
    class       volScalarField;
    location    "1.1";
    object      p;
}
// * * * * * * * * * * * * * * * * * * * * * * * * * * * * * * * * * * * * * //

dimensions      [1 -1 -2 0 0 0 0]


internalField   nonuniform List<scalar>
300
(
2.135
-0.90737
3.5607
1.8195
-0.71264
-1.6691
-4.1342
-4.8654
-5.5682
-6.0626
8.9451
2.9337
7.7181
4.3678
-1.0171
-3.9051
-8.6494
-10.8799
-12.4202
-13.4018
22.2129
11.1302
13.5169
7.5478
-1.2928
-6.4186
-13.5014
-17.5692
-20.0671
-21.5446
41.9215
22.8243
20.1974
10.2966
-2.8191
-10.2442
-19.4832
-25.5116
-29.0558
-31.0284
62.4398
33.7897
25.8424
12.0853
-6.0382
-16.0136
-27.2251
-35.2651
-39.9472
-42.4277
82.0678
43.5321
31.7091
14.8957
-9.9056
-23.8815
-37.3657
-47.5064
-53.3939
-56.375
127.5074
68.8191
45.3627
21.7202
-13.9761
-34.9296
-51.3207
-63.3746
-70.2403
-73.5591
265.4563
141.0707
69.9818
26.9302
-23.7659
-53.2956
-71.8728
-84.4703
-91.3445
-94.5178
505.7848
244.6946
75.5365
5.8579
-52.9512
-85.5199
-102.0552
-111.9968
-117.0007
-119.1985
541.9917
228.529
-5.7053
-72.1826
-113.3253
-134.9076
-142.2015
-145.3088
-146.2357
-146.5513
-192.54
-71.0491
-196.4771
-201.829
-197.8784
-195.2907
-187.4878
-180.9151
-176.3816
-174.2726
-689.5434
-342.6204
-362.6745
-315.1956
-274.0187
-249.7435
-228.4779
-213.2247
-203.5738
-199.0367
-1023.6339
-572.9639
-499.9989
-410.9274
-338.2574
-294.4884
-261.4161
-238.6908
-224.6082
-217.9194
-1209.453
-731.1862
-586.2332
-473.8453
-380.4132
-322.5772
-281.2434
-253.3736
-236.2585
-228.0885
-1259.6848
-809.8953
-614.4208
-494.9719
-393.8027
-329.188
-284.3514
-254.4757
-236.2573
-227.5623
-1180.1052
-807.2703
-584.0853
-469.5088
-374.2598
-311.6924
-269.1017
-240.9599
-223.893
-215.7535
-943.0673
-704.727
-490.3801
-394.8486
-320.4812
-270.4403
-236.5108
-214.0249
-200.3405
-193.7526
-477.6111
-456.6297
-322.8205
-273.588
-236.8993
-210.0599
-190.6294
-177.0544
-168.4805
-164.1737
218.3119
-62.2221
-99.6062
-127.434
-138.7402
-140.441
-138.1789
-134.9298
-132.1983
-130.4867
771.1671
283.1071
88.5435
-3.1138
-50.4159
-74.7395
-86.9348
-92.7891
-95.3778
-96.1161
473.7508
286.7142
146.2372
61.2852
8.7192
-23.6709
-43.2583
-54.7738
-61.0937
-63.7515
326.8886
245.785
158.0055
91.2934
44.1277
11.8067
-9.6756
-23.3879
-31.4421
-35.0715
242.5038
202.6717
149.9604
102.2614
64.2666
35.8016
15.457
1.6887
-6.7643
-10.713
191.0714
169.497
137.156
104.0458
74.9887
51.5238
33.7202
21.095
13.0743
9.2317
158.3171
145.6439
125.0604
102.0721
80.3144
61.6254
46.7229
35.7376
28.5617
25.0563
136.8694
128.8903
115.2327
99.0062
82.7324
68.0398
55.8332
46.5401
40.3277
37.2451
122.6747
117.3203
107.8282
96.0391
83.6825
72.0753
62.1041
54.3082
48.9955
46.3251
113.4627
109.615
102.6289
93.6708
83.9642
74.5601
66.2635
59.6368
55.0503
52.7206
108.0741
105.0426
99.4528
92.1276
84.004
75.9588
68.7241
62.8564
58.7494
56.6467
105.9037
103.1889
98.1513
91.4812
84.0007
76.5141
69.7204
64.1706
60.2651
58.2555
)
;

boundaryField
{
    bump
    {
        type             zeroGradient;
    }
    outlet
    {
        type             fixedValue;
        value            uniform 0;
    }
    inlet
    {
        type             zeroGradient;
    }
    side1
    {
        type             empty;
    }
    side2
    {
        type             empty;
    }
    symmetry
    {
        type             symmetry;
    }
    top
    {
        type             symmetry;
    }
}

// ************************************************************************* //
