/*--------------------------------*- C++ -*----------------------------------*\\
| =========                 |                                                 |
| \\      /  F ield         | OpenFOAM: The Open Source CFD Toolbox           |
|  \\    /   O peration     | Version:  v1706                                 |
|   \\  /    A nd           | Web:      www.OpenFOAM.com                      |
|    \\/     M anipulation  |                                                 |
\\*---------------------------------------------------------------------------*/
FoamFile
{
    version     2.0;
    format      ascii;
    class       volVectorField;
    location    "1.1";
    object      U;
}
// * * * * * * * * * * * * * * * * * * * * * * * * * * * * * * * * * * * * * //

dimensions      [0 1 -1 0 0 0 0]


internalField   nonuniform List<vector>
300
(
(57.4447 -0.25443 0.01354)
(58.3392 -0.12702 0.0092898)
(59.5805 -0.23671 0.005241)
(60.3054 -0.42978 0.0032593)
(60.6208 -0.24871 0.0020241)
(60.7469 -0.33165 0.0012314)
(60.7864 -0.23371 0.0007385)
(60.7781 -0.19381 0.00058493)
(60.7504 -0.12429 0.0022542)
(60.7254 -0.041826 0.0023403)
(57.3302 -0.28432 0.013523)
(58.296 -0.13406 0.0092832)
(59.4912 -0.23237 0.0053152)
(60.2682 -0.46725 0.0033374)
(60.6427 -0.27746 0.0021014)
(60.788 -0.36424 0.0013076)
(60.8689 -0.26577 0.00081339)
(60.8766 -0.21234 0.00065599)
(60.8641 -0.13707 0.0022576)
(60.849 -0.046526 0.0023438)
(57.1652 -0.34008 0.013366)
(58.1901 -0.17135 0.0091378)
(59.4105 -0.24995 0.0052463)
(60.2268 -0.54352 0.0032705)
(60.6484 -0.33903 0.0020328)
(60.819 -0.42162 0.0012373)
(60.9268 -0.32034 0.00074149)
(60.9544 -0.24561 0.00057974)
(60.9532 -0.15873 0.0021138)
(60.9445 -0.054556 0.0022001)
(56.9441 -0.4314 0.01329)
(58.0527 -0.26069 0.0090743)
(59.3218 -0.3044 0.0052557)
(60.1856 -0.66588 0.0032793)
(60.6633 -0.44004 0.0020385)
(60.864 -0.50672 0.0012405)
(60.9989 -0.39929 0.00074269)
(61.049 -0.29553 0.00057577)
(61.0602 -0.1892 0.0020426)
(61.0578 -0.065508 0.0021292)
(56.6913 -0.57402 0.013224)
(57.9086 -0.42841 0.0090204)
(59.2378 -0.41042 0.0052703)
(60.1511 -0.84344 0.0032907)
(60.6944 -0.58661 0.0020452)
(60.9299 -0.62085 0.0012439)
(61.0917 -0.50328 0.00074353)
(61.166 -0.36354 0.00057041)
(61.1908 -0.22923 0.0019708)
(61.195 -0.079598 0.0020579)
(56.4275 -0.77921 0.01317)
(57.7721 -0.68586 0.0089789)
(59.1571 -0.56468 0.0052913)
(60.1128 -1.0778 0.0033052)
(60.7375 -0.78571 0.002053)
(61.0205 -0.76677 0.0012475)
(61.2123 -0.63287 0.00074399)
(61.3129 -0.45091 0.00056344)
(61.3525 -0.27954 0.0018984)
(61.3633 -0.0969 0.0019861)
(55.9551 -1.0571 0.013131)
(57.5195 -1.038 0.008953)
(59.0183 -0.75592 0.00532)
(60.04 -1.3746 0.0033236)
(60.7851 -1.0574 0.0020626)
(61.1444 -0.95691 0.0012516)
(61.3735 -0.79231 0.00074418)
(61.501 -0.55949 0.0005547)
(61.5546 -0.34046 0.0018255)
(61.571 -0.11722 0.0019141)
(54.5942 -1.4906 0.013109)
(56.8115 -1.6263 0.0089458)
(58.7477 -1.0679 0.0053583)
(59.9509 -1.7877 0.003347)
(60.8726 -1.4475 0.0020745)
(61.3373 -1.2142 0.0012565)
(61.6033 -0.98504 0.00074429)
(61.7478 -0.68706 0.00054412)
(61.8078 -0.40973 0.0017521)
(61.8256 -0.13963 0.0018417)
(51.7387 -2.4217 0.013107)
(55.514 -3.0432 0.0089663)
(58.5208 -1.8341 0.005412)
(60.0446 -2.4307 0.0033785)
(61.1263 -1.9934 0.0020903)
(61.6698 -1.5434 0.001263)
(61.9394 -1.1971 0.00074466)
(62.0714 -0.81827 0.00053177)
(62.1191 -0.47778 0.0016784)
(62.1295 -0.16086 0.0017692)
(49.5105 -4.4156 0.013151)
(54.7521 -6.2368 0.009053)
(58.9922 -3.457 0.0054965)
(60.6847 -3.3093 0.0034239)
(61.711 -2.6144 0.0021123)
(62.2044 -1.8795 0.0012721)
(62.4022 -1.3797 0.00074593)
(62.4737 -0.92023 0.00051823)
(62.4828 -0.5267 0.0016046)
(62.4745 -0.17529 0.0016966)
(55.0352 -6.8834 0.013229)
(56.7858 -10.524 0.00915)
(60.7776 -5.5234 0.0055551)
(62.0426 -4.0556 0.003441)
(62.66 -3.051 0.0021121)
(62.9242 -2.0837 0.0012663)
(62.9639 -1.4585 0.00073845)
(62.9283 -0.95167 0.00049903)
(62.875 -0.53676 0.0015282)
(62.8382 -0.17734 0.0016246)
(63.7931 -6.0403 0.012771)
(61.0488 -11.0934 0.0082151)
(63.561 -5.5464 0.0047397)
(63.8569 -3.8068 0.002917)
(63.8286 -2.8399 0.0017777)
(63.7294 -1.8772 0.0010643)
(63.5503 -1.2911 0.00062774)
(63.3826 -0.83203 0.00045019)
(63.2568 -0.46636 0.0015016)
(63.1885 -0.15147 0.0015485)
(69.5485 -3.7806 0.011681)
(64.7027 -9.2779 0.0070973)
(65.832 -4.718 0.0039296)
(65.3513 -2.9892 0.0024173)
(64.81 -2.2724 0.0014623)
(64.4084 -1.4581 0.00087576)
(64.0451 -0.98717 0.00052425)
(63.7648 -0.62784 0.00040256)
(63.5752 -0.3498 0.0014537)
(63.4778 -0.11118 0.0014624)
(73.0975 -0.93671 0.010255)
(67.5379 -5.9914 0.0058309)
(67.4704 -3.2813 0.003179)
(66.449 -1.743 0.0019805)
(65.533 -1.4075 0.0012096)
(64.8978 -0.85792 0.00073669)
(64.394 -0.56549 0.00045053)
(64.0282 -0.35082 0.00036952)
(63.79 -0.19328 0.0013922)
(63.6702 -0.058952 0.001372)
(74.7659 2.0432 0.0094586)
(69.2903 -1.9231 0.0049922)
(68.3296 -1.421 0.0027477)
(67.0265 -0.25747 0.0017274)
(65.9055 -0.34089 0.0010671)
(65.1292 -0.13466 0.00066369)
(64.5454 -0.064132 0.00041442)
(64.1323 -0.024671 0.00035545)
(63.8678 -0.0098798 0.0013211)
(63.7362 0.00088411 0.0012806)
(74.7242 4.8449 0.0093579)
(69.8746 2.3696 0.0048112)
(68.3792 0.72848 0.0026654)
(67.0193 1.2845 0.001678)
(65.8727 0.81212 0.0010408)
(65.0633 0.64018 0.00065333)
(64.4703 0.46719 0.00041113)
(64.0553 0.3185 0.00035627)
(63.7915 0.18236 0.0012408)
(63.6607 0.062961 0.0011897)
(72.9247 7.214 0.0087499)
(69.1317 6.3566 0.0045979)
(67.5855 3.0238 0.0024738)
(66.3882 2.7397 0.0015395)
(65.4045 1.9154 0.00095552)
(64.689 1.382 0.00059863)
(64.1662 0.96963 0.00037623)
(63.7988 0.64107 0.00033119)
(63.5644 0.36262 0.0011399)
(63.4474 0.12133 0.0010952)
(68.8096 8.7744 0.0063859)
(66.768 9.4932 0.0035328)
(65.8482 5.1412 0.0017731)
(65.131 3.9469 0.0010821)
(64.5195 2.8028 0.00068521)
(64.0362 1.9845 0.00043433)
(63.6635 1.3761 0.0002742)
(63.3904 0.90252 0.00025639)
(63.2111 0.50934 0.0010205)
(63.1194 0.16915 0.00099633)
(61.7818 8.9145 0.0030322)
(62.6659 10.8275 0.0019173)
(63.2657 6.4738 0.0008759)
(63.4201 4.6239 0.00054043)
(63.3578 3.2998 0.00037446)
(63.2056 2.3425 0.00025211)
(63.0349 1.6289 0.00016239)
(62.8845 1.0709 0.0001677)
(62.7752 0.60645 0.00090251)
(62.7153 0.20116 0.0009005)
(53.8521 6.8563 0.0010159)
(58.3037 9.1427 0.00089409)
(60.6873 6.2581 0.0003111)
(61.7432 4.5162 0.0001828)
(62.1953 3.3143 0.00014202)
(62.355 2.4108 0.00010346)
(62.378 1.7058 6.8546e-05)
(62.347 1.1347 8.0971e-05)
(62.307 0.64801 0.00079443)
(62.279 0.21484 0.00081142)
(52.4799 2.6581 0.00069714)
(57.0105 4.9312 0.0007335)
(59.4265 4.6651 0.00014482)
(60.6741 3.8017 3.7935e-05)
(61.3232 2.9751 2.2465e-05)
(61.6448 2.2549 1.6118e-05)
(61.7882 1.6389 1.0378e-05)
(61.8405 1.1091 6.2171e-06)
(61.8523 0.63991 0.00070173)
(61.8496 0.21091 0.00073288)
(55.8545 1.2574 0.00065681)
(57.6429 2.777 0.00065417)
(59.1386 3.0891 6.9562e-05)
(60.1155 2.8118 5.3084e-06)
(60.7214 2.3611 3.3845e-07)
(61.0793 1.8787 2.2737e-08)
(61.2781 1.4134 -1.2949e-08)
(61.3807 0.97933 -2.4055e-08)
(61.4286 0.57393 0.00063492)
(61.4455 0.19039 0.00066011)
(57.517 0.67433 0.0005849)
(58.3057 1.6467 0.00058357)
(59.1901 2.0384 3.9671e-05)
(59.8852 2.0231 2.1537e-06)
(60.3731 1.8059 1.2728e-07)
(60.6934 1.5013 1.1753e-08)
(60.8916 1.1658 -1.4306e-08)
(61.0067 0.82584 -2.6192e-08)
(61.0678 0.49099 0.00056953)
(61.093 0.16381 0.00058691)
(58.4724 0.39415 0.00051239)
(58.8544 1.0227 0.00051171)
(59.3624 1.3594 2.222e-05)
(59.8223 1.438 8.7101e-07)
(60.1798 1.3489 6.3018e-08)
(60.4347 1.164 8.7057e-09)
(60.6047 0.9293 -1.5115e-08)
(60.7106 0.67136 -2.7995e-08)
(60.7706 0.4043 0.00050226)
(60.7968 0.13557 0.00051364)
(59.057 0.24429 0.00043958)
(59.2534 0.65792 0.00043922)
(59.5439 0.91697 1.2142e-05)
(59.8346 1.0157 3.6608e-07)
(60.0793 0.99031 4.4361e-08)
(60.2655 0.88108 7.7173e-09)
(60.3968 0.72 -1.569e-08)
(60.4828 0.52895 -2.9547e-08)
(60.5336 0.3221 0.0004333)
(60.5566 0.10849 0.00044032)
(59.4303 0.15692 0.00036658)
(59.534 0.43258 0.00036639)
(59.6979 0.62221 6.372e-06)
(59.8737 0.71223 1.7347e-07)
(60.0308 0.715 3.9106e-08)
(60.1565 0.65171 7.2954e-09)
(60.249 0.54273 -1.6122e-08)
(60.3118 0.40429 -3.087e-08)
(60.35 0.24848 0.00036295)
(60.3676 0.084012 0.00036698)
(59.6745 0.10217 0.00029345)
(59.7283 0.28584 0.00029336)
(59.8171 0.41984 3.133e-06)
(59.9168 0.49181 1.0349e-07)
(60.0098 0.5045 3.7636e-08)
(60.087 0.46842 7.0624e-09)
(60.1456 0.39593 -1.6458e-08)
(60.1865 0.29821 -3.1987e-08)
(60.2119 0.18466 0.00029152)
(60.2237 0.062628 0.00029361)
(59.8343 0.065539 0.00022023)
(59.86 0.18507 0.00022018)
(59.9035 0.27558 1.3929e-06)
(59.9538 0.32798 8.0102e-08)
(60.0021 0.34165 3.7191e-08)
(60.0432 0.32155 6.9014e-09)
(60.0751 0.27482 -1.6738e-08)
(60.0978 0.20873 -3.2919e-08)
(60.1121 0.13 0.00021929)
(60.1188 0.044201 0.00022022)
(59.9338 0.039252 0.00014693)
(59.9436 0.11146 0.00014691)
(59.9606 0.16738 5.3792e-07)
(59.9806 0.20126 7.3395e-08)
(60.0002 0.21178 3.7047e-08)
(60.017 0.20114 6.8046e-09)
(60.0303 0.17321 -1.6946e-08)
(60.0398 0.13231 -3.3639e-08)
(60.0458 0.082743 0.0001465)
(60.0486 0.028187 0.00014682)
(59.9852 0.018479 5.4888e-08)
(59.9874 0.052747 4.4099e-08)
(59.9911 0.079585 -7.3306e-05)
(59.9956 0.096224 -7.3411e-05)
(60 0.1018 -7.3433e-05)
(60.0038 0.097154 -7.3451e-05)
(60.0068 0.083988 -7.3466e-05)
(60.009 0.064333 -7.3476e-05)
(60.0103 0.0403 -1.0146e-07)
(60.011 0.013696 -3.9493e-08)
)
;

boundaryField
{
    bump
    {
        type             noSlip;
    }
    outlet
    {
        type             zeroGradient;
    }
    inlet
    {
        type             fixedValue;
        value            uniform (60 0 0);
    }
    side1
    {
        type             empty;
    }
    side2
    {
        type             empty;
    }
    symmetry
    {
        type             symmetry;
    }
    top
    {
        type             symmetry;
    }
}

// ************************************************************************* //
