/*--------------------------------*- C++ -*----------------------------------*\\
| =========                 |                                                 |
| \\      /  F ield         | OpenFOAM: The Open Source CFD Toolbox           |
|  \\    /   O peration     | Version:  v1706                                 |
|   \\  /    A nd           | Web:      www.OpenFOAM.com                      |
|    \\/     M anipulation  |                                                 |
\\*---------------------------------------------------------------------------*/
FoamFile
{
    version     2.0;
    format      ascii;
    class       surfaceScalarField;
    location    "0.5";
    object      mdot_f;
}
// * * * * * * * * * * * * * * * * * * * * * * * * * * * * * * * * * * * * * //

dimensions      [1 0 -1 0 0 0 0]


internalField   nonuniform List<scalar>
560
(
-0.00056122
-0.13918
-0.00090672
-0.14234
-0.0011308
-0.14542
-0.00097197
-0.14737
-0.00075198
-0.14848
-0.00059358
-0.14915
-0.0004351
-0.1496
-0.00027597
-0.1499
-0.00013139
-0.1501
-0.15024
-0.00044297
-0.13873
-0.00073577
-0.14203
-0.0009397
-0.14521
-0.00093505
-0.14736
-0.00080434
-0.1486
-0.00065158
-0.14929
-0.00048604
-0.14976
-0.00031452
-0.15006
-0.00015012
-0.15026
-0.15038
-0.00044601
-0.13828
-0.00072552
-0.14172
-0.00092379
-0.14498
-0.00098311
-0.14728
-0.00089455
-0.14866
-0.00074302
-0.14942
-0.00056314
-0.14992
-0.00036972
-0.15023
-0.00017716
-0.15043
-0.15055
-0.00055507
-0.13771
-0.00086035
-0.14137
-0.0010515
-0.14476
-0.0011307
-0.14717
-0.00105
-0.14871
-0.00088267
-0.14956
-0.00067505
-0.1501
-0.00044739
-0.15044
-0.00021521
-0.15064
-0.15075
-0.00078461
-0.1369
-0.0011486
-0.14094
-0.0013165
-0.14454
-0.0013869
-0.14705
-0.0012908
-0.14877
-0.00109
-0.14972
-0.00083678
-0.15031
-0.00055714
-0.15068
-0.00026941
-0.1509
-0.151
-0.0011373
-0.13573
-0.001596
-0.14041
-0.0017292
-0.14434
-0.0017758
-0.14695
-0.0016477
-0.14884
-0.0013908
-0.14993
-0.0010667
-0.1506
-0.00071037
-0.151
-0.00034478
-0.15122
-0.15132
-0.0015655
-0.13412
-0.002222
-0.13967
-0.0023633
-0.14413
-0.0023783
-0.14687
-0.0021821
-0.14898
-0.0018215
-0.15024
-0.0013825
-0.15099
-0.00091465
-0.15143
-0.00044392
-0.15166
-0.15175
-0.002028
-0.13204
-0.0032535
-0.13835
-0.0034944
-0.14382
-0.0033766
-0.14692
-0.0029812
-0.14932
-0.0024101
-0.15076
-0.0017844
-0.15157
-0.001162
-0.15201
-0.00056112
-0.15222
-0.15229
-0.0032706
-0.12871
-0.0056349
-0.1359
-0.0056737
-0.14371
-0.0049716
-0.14756
-0.0040672
-0.15017
-0.0031175
-0.15166
-0.0022249
-0.15242
-0.001416
-0.15278
-0.00067763
-0.15292
-0.15295
-0.0090667
-0.11959
-0.010712
-0.13417
-0.0091002
-0.14526
-0.0070019
-0.14961
-0.0052243
-0.1519
-0.0037756
-0.15307
-0.0025934
-0.15356
-0.0016122
-0.15372
-0.00076406
-0.15373
-0.1537
0.020254
-0.13979
0.024407
-0.13826
0.025356
-0.14616
0.024227
-0.14843
0.021502
-0.14913
0.017885
-0.14942
0.013757
-0.1494
0.0093171
-0.14925
0.0047022
-0.14909
-0.14899
0.012154
-0.15191
0.017176
-0.14324
0.018648
-0.1476
0.018158
-0.14792
0.016359
-0.14731
0.013738
-0.14677
0.010623
-0.14627
0.0072163
-0.14583
0.0036495
-0.14551
-0.14533
0.0072106
-0.15909
0.011626
-0.14762
0.012943
-0.1489
0.012741
-0.1477
0.011588
-0.14614
0.0098024
-0.14497
0.0076153
-0.14407
0.0051888
-0.14339
0.0026293
-0.14294
-0.1427
0.0037974
-0.16288
0.0070781
-0.1509
0.007955
-0.14977
0.0078484
-0.14758
0.0071651
-0.14545
0.0060836
-0.14389
0.0047391
-0.14272
0.0032349
-0.14188
0.0016412
-0.14134
-0.14106
0.0010516
-0.16392
0.0029774
-0.15283
0.0033596
-0.15015
0.0032784
-0.14751
0.00298
-0.14516
0.0025232
-0.14344
0.0019613
-0.14216
0.0013363
-0.14126
0.00067711
-0.14069
-0.14039
-0.0014646
-0.16246
-0.0010368
-0.15327
-0.0011235
-0.15008
-0.0011831
-0.14746
-0.0011185
-0.14524
-0.00097836
-0.14359
-0.00078153
-0.14237
-0.00054411
-0.14151
-0.00027991
-0.14096
-0.14068
-0.0040387
-0.15843
-0.0051709
-0.15216
-0.0057351
-0.14954
-0.0057592
-0.14745
-0.0053108
-0.1457
-0.0045487
-0.14437
-0.0035711
-0.14336
-0.0024529
-0.14265
-0.0012497
-0.14218
-0.14194
-0.006788
-0.15165
-0.0095825
-0.14939
-0.010726
-0.14841
-0.010691
-0.14751
-0.0097856
-0.14663
-0.0083174
-0.14586
-0.0064883
-0.14521
-0.0044355
-0.14472
-0.0022524
-0.14438
-0.14421
-0.010394
-0.14128
-0.015211
-0.14461
-0.016794
-0.14686
-0.01639
-0.14794
-0.014759
-0.14828
-0.012397
-0.14824
-0.0095917
-0.14804
-0.0065208
-0.14781
-0.0032997
-0.14763
-0.14752
-0.019144
-0.12215
-0.024436
-0.13935
-0.024872
-0.14645
-0.023173
-0.14966
-0.02033
-0.15115
-0.016813
-0.15178
-0.012885
-0.15199
-0.0087075
-0.15201
-0.00439
-0.15197
-0.15192
0.011281
-0.13345
0.011845
-0.13995
0.010242
-0.14487
0.0082603
-0.14771
0.0063978
-0.14931
0.0047717
-0.15018
0.00337
-0.15061
0.0021439
-0.15081
0.0010346
-0.15088
-0.1509
0.0055712
-0.13904
0.0074205
-0.14183
0.0072447
-0.14471
0.0063303
-0.14682
0.005189
-0.14819
0.0040297
-0.14904
0.0029273
-0.14954
0.0018973
-0.1498
0.00092606
-0.14993
-0.14998
0.0030737
-0.14213
0.0046655
-0.14344
0.005026
-0.1451
0.0047035
-0.14651
0.0040512
-0.14756
0.0032622
-0.14827
0.0024322
-0.14873
0.0016037
-0.149
0.00079038
-0.14914
-0.1492
0.0018296
-0.14398
0.0030011
-0.14464
0.0034686
-0.14558
0.003429
-0.14649
0.0030789
-0.14723
0.0025575
-0.14777
0.0019508
-0.14814
0.0013063
-0.14837
0.00064908
-0.1485
-0.14856
0.001147
-0.14514
0.0019723
-0.14549
0.0023933
-0.14602
0.002467
-0.14658
0.0022908
-0.14707
0.0019526
-0.14745
0.0015184
-0.14772
0.0010304
-0.1479
0.00051541
-0.148
-0.14805
0.00074187
-0.14589
0.0013131
-0.14607
0.0016476
-0.14637
0.0017515
-0.1467
0.0016697
-0.147
0.0014533
-0.14725
0.0011478
-0.14743
0.00078734
-0.14755
0.00039594
-0.14763
-0.14766
0.00048508
-0.14639
0.00087367
-0.14648
0.0011216
-0.14664
0.0012191
-0.14681
0.0011852
-0.14698
0.0010486
-0.14713
0.0008384
-0.14723
0.00057989
-0.14731
0.00029258
-0.14736
-0.14738
0.0003122
-0.14671
0.00056762
-0.14675
0.00073986
-0.14682
0.00081673
-0.1469
0.00080527
-0.14699
0.00072098
-0.14705
0.00058182
-0.14711
0.00040489
-0.14715
0.00020454
-0.14717
-0.14718
0.00018773
-0.1469
0.00034258
-0.14692
0.00045069
-0.14694
0.00050246
-0.14697
0.00049982
-0.14699
0.00045091
-0.14702
0.00036601
-0.14703
0.00025568
-0.14705
0.0001292
-0.14705
-0.14705
8.8341e-05
0.00016326
0.00021555
0.00024106
0.00024042
0.00021731
0.0001766
0.00012366
6.3703e-05
)
;

boundaryField
{
    bump
    {
        type             calculated;
        value            uniform 0;
    }
    outlet
    {
        type             calculated;
        value            nonuniform List<scalar>
10
(
0.15014
0.15
0.1498
0.14952
0.14909
0.1484
0.14738
0.1457
0.14254
0.13951
)
;
    }
    inlet
    {
        type             calculated;
        value            nonuniform List<scalar>
10
(
-0.147
-0.147
-0.147
-0.147
-0.147
-0.147
-0.147
-0.147
-0.147
-0.147
)
;
    }
    side1
    {
        type             calculated;
        value            uniform 0;
    }
    side2
    {
        type             calculated;
        value            uniform 0;
    }
    symmetry
    {
        type             calculated;
        value            uniform 0;
    }
    top
    {
        type             calculated;
        value            uniform 0;
    }
}

// ************************************************************************* //
