/*--------------------------------*- C++ -*----------------------------------*\\
| =========                 |                                                 |
| \\      /  F ield         | OpenFOAM: The Open Source CFD Toolbox           |
|  \\    /   O peration     | Version:  v1706                                 |
|   \\  /    A nd           | Web:      www.OpenFOAM.com                      |
|    \\/     M anipulation  |                                                 |
\\*---------------------------------------------------------------------------*/
FoamFile
{
    version     2.0;
    format      ascii;
    class       volScalarField;
    location    "0.5";
    object      p;
}
// * * * * * * * * * * * * * * * * * * * * * * * * * * * * * * * * * * * * * //

dimensions      [1 -1 -2 0 0 0 0]


internalField   nonuniform List<scalar>
300
(
10.3672
5.4543
7.038
-2.6957
-7.9296
-8.3137
-8.6241
-8.7907
-8.7044
-8.6362
4.5037
1.0909
6.9724
-4.0384
-11.8503
-12.5055
-12.5674
-12.5724
-12.367
-12.2943
-12.822
-12.2496
2.4592
-4.317
-12.9225
-14.0619
-14.2338
-14.4565
-14.5063
-14.6564
-36.2473
-30.5743
-3.2183
-1.4594
-9.7374
-12.0778
-13.282
-14.5428
-15.4348
-16.0999
-51.9888
-43.7601
-3.74
8.0632
-0.60073
-6.1419
-10.1086
-13.5796
-16.034
-17.5676
-31.8477
-32.5656
10.1703
27.3751
14.608
2.4234
-6.5027
-13.328
-17.9293
-20.5635
68.7521
29.3882
46.1493
54.6366
31.3723
9.1213
-6.1833
-16.6912
-23.3511
-26.9487
292.2258
157.5763
97.2785
76.1932
38.0377
5.8978
-14.388
-26.9935
-34.4851
-38.4015
594.5071
307.5424
124.6842
64.382
18.2917
-15.914
-35.5212
-46.417
-52.4421
-55.5739
658.6205
323.5942
63.641
-7.5954
-38.0029
-59.2257
-69.7347
-74.2304
-76.2362
-77.4323
-36.3765
55.8467
-106.167
-131.4904
-120.5303
-115.9235
-111.0396
-106.0654
-102.5756
-101.2273
-514.0132
-192.1454
-249.1093
-233.9012
-193.277
-167.4981
-148.7809
-135.2577
-126.7968
-123.0205
-857.953
-419.2023
-371.4817
-318.1683
-253.6263
-210.3405
-179.6784
-158.6852
-145.8689
-139.9275
-1086.0608
-602.4985
-461.3269
-376.0118
-293.6545
-237.8081
-198.7333
-172.5178
-156.6558
-149.184
-1195.9824
-727.8267
-512.5771
-402.0978
-308.7481
-245.8665
-202.6649
-174.1396
-157.021
-148.9052
-1159.3239
-767.7783
-512.1346
-388.6481
-294.5774
-232.0802
-190.0299
-162.6403
-146.3254
-138.5515
-917.0677
-675.5197
-437.1567
-326.0091
-247.7483
-196.0247
-161.475
-138.9971
-125.5745
-119.0739
-411.508
-405.5377
-270.5106
-211.6819
-170.2236
-140.9409
-120.1647
-105.9925
-97.2078
-92.7133
301.7953
8.2853
-40.2866
-67.0983
-75.6158
-75.335
-71.7385
-67.6975
-64.5165
-62.4486
832.9563
349.878
151.0565
57.606
10.9532
-12.3788
-23.6861
-28.878
-31.0079
-31.3509
531.5476
347.4156
206.2461
120.2394
67.8962
36.157
17.2253
6.263
0.37604
-1.9085
383.0228
302.878
215.3103
148.2739
101.2243
69.3423
48.3429
35.0796
27.4216
24.1287
296.975
257.4259
204.9317
157.2519
119.3981
91.2606
71.2992
57.8994
49.8034
46.1679
244.0121
222.503
190.2979
157.3153
128.4214
105.2219
87.7397
75.4222
67.7148
64.1575
210.003
197.3381
176.8411
153.9956
132.4118
113.9479
99.3144
88.5973
81.6899
78.4255
187.6406
179.6694
166.0803
149.9864
133.8828
119.3844
107.4015
98.3411
92.3538
89.4655
172.8935
167.5547
158.1291
146.4551
134.2483
122.8093
113.0196
105.4096
100.2756
97.7545
163.4359
159.6082
152.6832
143.817
134.2307
124.9658
116.8139
110.3311
105.8752
103.6485
157.9807
154.9715
149.434
142.1837
134.1557
126.2218
119.104
113.3506
109.3391
107.3033
155.7985
153.1102
148.1231
141.5242
134.1312
126.744
120.053
114.6009
110.7731
108.8058
)
;

boundaryField
{
    bump
    {
        type             zeroGradient;
    }
    outlet
    {
        type             fixedValue;
        value            uniform 0;
    }
    inlet
    {
        type             zeroGradient;
    }
    side1
    {
        type             empty;
    }
    side2
    {
        type             empty;
    }
    symmetry
    {
        type             symmetry;
    }
    top
    {
        type             symmetry;
    }
}

// ************************************************************************* //
