/*--------------------------------*- C++ -*----------------------------------*\\
| =========                 |                                                 |
| \\      /  F ield         | OpenFOAM: The Open Source CFD Toolbox           |
|  \\    /   O peration     | Version:  v1706                                 |
|   \\  /    A nd           | Web:      www.OpenFOAM.com                      |
|    \\/     M anipulation  |                                                 |
\\*---------------------------------------------------------------------------*/
FoamFile
{
    version     2.0;
    format      ascii;
    class       volVectorField;
    location    "0.5";
    object      U;
}
// * * * * * * * * * * * * * * * * * * * * * * * * * * * * * * * * * * * * * //

dimensions      [0 1 -1 0 0 0 0]


internalField   nonuniform List<vector>
300
(
(56.9448 -0.45713 0.010403)
(58.1781 -0.21861 0.0074229)
(59.4697 -0.68369 0.0042397)
(60.1567 -0.52713 0.0026346)
(60.5721 -0.30378 0.0016544)
(60.8533 -0.28455 0.0010351)
(61.0297 -0.21838 0.00063835)
(61.1449 -0.14596 0.00047076)
(61.226 -0.075771 0.0017512)
(61.2823 -0.025318 0.0017479)
(56.7603 -0.44092 0.011369)
(58.0733 -0.19019 0.0081203)
(59.3849 -0.62492 0.0047603)
(60.2685 -0.54528 0.0029943)
(60.7607 -0.31502 0.0019121)
(61.0281 -0.30116 0.0012267)
(61.1982 -0.23938 0.0007853)
(61.3051 -0.16227 0.00058868)
(61.3726 -0.085611 0.001825)
(61.4157 -0.028402 0.0018158)
(56.7272 -0.44331 0.012158)
(58.0479 -0.19113 0.0086531)
(59.3513 -0.60133 0.0051186)
(60.2744 -0.61655 0.0031957)
(60.8079 -0.35469 0.0020146)
(61.0846 -0.32843 0.0012651)
(61.2571 -0.2692 0.00078078)
(61.3639 -0.1853 0.00055632)
(61.4279 -0.099683 0.0017474)
(61.4654 -0.033116 0.0017335)
(56.7496 -0.46059 0.012966)
(58.0649 -0.2039 0.0092215)
(59.3314 -0.58321 0.0055231)
(60.2583 -0.72459 0.0034512)
(60.8331 -0.43023 0.0021764)
(61.1295 -0.37544 0.0013665)
(61.3112 -0.31291 0.00084207)
(61.4228 -0.21857 0.00059184)
(61.4866 -0.12016 0.0017374)
(61.5202 -0.040049 0.0017207)
(56.7559 -0.50111 0.013694)
(58.0831 -0.22754 0.0097326)
(59.304 -0.55134 0.0058868)
(60.2114 -0.85742 0.0036781)
(60.8314 -0.54797 0.0023175)
(61.1613 -0.45247 0.0014528)
(61.363 -0.37863 0.00089275)
(61.4867 -0.26776 0.00061982)
(61.5552 -0.15052 0.0017205)
(61.5874 -0.050493 0.0017035)
(56.6022 -0.58857 0.014317)
(58.0124 -0.28727 0.010169)
(59.2267 -0.50387 0.0061976)
(60.1169 -1.0125 0.0038681)
(60.8002 -0.72101 0.0024324)
(61.1866 -0.57464 0.0015204)
(61.4225 -0.47682 0.00093033)
(61.5667 -0.3398 0.00063848)
(61.6448 -0.19468 0.0016959)
(61.6779 -0.065578 0.0016814)
(55.9837 -0.7793 0.014818)
(57.668 -0.47114 0.010518)
(59.0321 -0.48671 0.0064461)
(59.9682 -1.2144 0.0040149)
(60.7564 -0.97731 0.0025168)
(61.2297 -0.76384 0.0015663)
(61.5142 -0.6193 0.00095295)
(61.6832 -0.44024 0.00064639)
(61.7716 -0.25488 0.001663)
(61.8059 -0.085864 0.0016541)
(54.3495 -1.2087 0.015185)
(56.78 -1.0254 0.010773)
(58.6892 -0.66309 0.0066274)
(59.8257 -1.5401 0.0041153)
(60.7691 -1.3592 0.0025686)
(61.3465 -1.0413 0.0015892)
(61.6779 -0.81141 0.00095966)
(61.8631 -0.56719 0.00064264)
(61.9538 -0.3282 0.0016213)
(61.9854 -0.11016 0.0016215)
(51.3482 -2.2021 0.015412)
(55.3288 -2.5372 0.010939)
(58.3977 -1.3893 0.0067462)
(59.8992 -2.1096 0.0041709)
(60.9804 -1.8889 0.0025882)
(61.6192 -1.3989 0.0015892)
(61.9579 -1.0353 0.00095057)
(62.129 -0.70378 0.00062712)
(62.2031 -0.40347 0.0015711)
(62.2234 -0.13453 0.0015835)
(49.1284 -4.244 0.01552)
(54.4433 -5.8354 0.011048)
(58.7969 -3.0401 0.006813)
(60.5433 -2.9398 0.0041821)
(61.5583 -2.4819 0.0025728)
(62.1172 -1.7604 0.0015632)
(62.3797 -1.2369 0.00092357)
(62.4871 -0.8152 0.00059854)
(62.5169 -0.46153 0.0015117)
(62.5138 -0.15284 0.0015399)
(54.4311 -6.7413 0.015499)
(56.2851 -10.2125 0.011064)
(60.394 -5.1816 0.0067851)
(61.8149 -3.6555 0.0041149)
(62.4679 -2.866 0.0024952)
(62.7888 -1.9708 0.0014917)
(62.8934 -1.3314 0.00086652)
(62.8967 -0.85447 0.00055017)
(62.8646 -0.47856 0.0014394)
(62.8339 -0.15769 0.001491)
(63.0596 -5.9395 0.014716)
(60.5138 -10.8944 0.0097471)
(63.1495 -5.3608 0.0055883)
(63.6594 -3.4678 0.0032991)
(63.6637 -2.6733 0.0019701)
(63.5914 -1.7874 0.0011651)
(63.4626 -1.1854 0.00067434)
(63.3253 -0.74927 0.00045245)
(63.2144 -0.41748 0.0014037)
(63.1496 -0.13505 0.0014342)
(68.8395 -3.723 0.013153)
(64.1645 -9.2092 0.0081299)
(65.3901 -4.6981 0.0043608)
(65.1535 -2.7427 0.0025249)
(64.6592 -2.1253 0.0014878)
(64.2673 -1.3869 0.00087017)
(63.9399 -0.90445 0.00050213)
(63.6828 -0.5614 0.00036459)
(63.5048 -0.31099 0.0013513)
(63.4099 -0.098233 0.0013653)
(72.5466 -0.90436 0.011314)
(67.0854 -6.0094 0.0064529)
(67.0445 -3.3923 0.0032967)
(66.2436 -1.6107 0.0019051)
(65.3914 -1.2888 0.0011223)
(64.7594 -0.8003 0.00065592)
(64.2783 -0.50277 0.00038024)
(63.928 -0.29972 0.00030445)
(63.6979 -0.16433 0.0012915)
(63.5794 -0.049578 0.0012909)
(74.4636 2.081 0.010178)
(69.0152 -1.9381 0.0053583)
(67.9889 -1.5779 0.0027294)
(66.8257 -0.22458 0.0016055)
(65.7687 -0.25735 0.00095724)
(64.9958 -0.087133 0.00056985)
(64.4247 -0.017225 0.00033914)
(64.0206 0.013122 0.00029137)
(63.7609 0.010085 0.0012364)
(63.6289 0.0068305 0.0012169)
(74.6226 4.9105 0.0097738)
(69.7749 2.4384 0.004993)
(68.1586 0.62748 0.0026059)
(66.8396 1.268 0.0015778)
(65.7387 0.86186 0.00095885)
(64.9353 0.67841 0.00058467)
(64.349 0.50136 0.00035725)
(63.9385 0.34467 0.00031006)
(63.6767 0.19419 0.0011795)
(63.544 0.065673 0.0011431)
(72.8381 7.2899 0.0089583)
(69.101 6.5078 0.0046729)
(67.4592 3.0311 0.0024188)
(66.241 2.7218 0.00147)
(65.2776 1.9391 0.0009039)
(64.5676 1.4082 0.00055781)
(64.0479 0.99216 0.00034529)
(63.6823 0.6569 0.00030419)
(63.4478 0.36746 0.0010989)
(63.3282 0.12126 0.0010629)
(68.6173 8.8091 0.0064763)
(66.6971 9.6361 0.0035708)
(65.7675 5.2202 0.0017531)
(65.0233 3.9567 0.0010472)
(64.4115 2.816 0.00065614)
(63.9279 2.0006 0.00041086)
(63.5541 1.3894 0.00025661)
(63.2798 0.9102 0.00024089)
(63.0985 0.50888 0.00099304)
(63.0035 0.16705 0.0009743)
(61.5831 8.8813 0.0030462)
(62.5543 10.8823 0.0019283)
(63.1919 6.5515 0.00087749)
(63.3389 4.6567 0.00053118)
(63.2689 3.3148 0.00036196)
(63.1117 2.3537 0.00024039)
(62.9369 1.6362 0.00015345)
(62.7829 1.0731 0.00015982)
(62.6703 0.60252 0.00088459)
(62.6067 0.19786 0.00088602)
(53.7321 6.8122 0.0010051)
(58.1777 9.1463 0.00088749)
(60.5986 6.3063 0.00031157)
(61.6686 4.5527 0.00018154)
(62.1181 3.3314 0.00013878)
(62.2729 2.419 0.00010017)
(62.2908 1.7089 6.6287e-05)
(62.2554 1.1331 7.8989e-05)
(62.2114 0.64202 0.00078385)
(62.18 0.21108 0.00080254)
(52.4195 2.6411 0.00069205)
(56.9133 4.9179 0.00072709)
(59.3381 4.6779 0.00014416)
(60.6025 3.8217 3.8349e-05)
(61.255 2.987 2.2784e-05)
(61.5745 2.2602 1.6436e-05)
(61.7138 1.6399 1.0828e-05)
(61.7616 1.106 6.8149e-06)
(61.7689 0.63341 0.00069547)
(61.7622 0.20722 0.00072759)
(55.8045 1.2515 0.000654)
(57.5785 2.7709 0.00065101)
(59.0745 3.0927 7.012e-05)
(60.0582 2.8195 6.0527e-06)
(60.665 2.3654 1.0391e-06)
(61.0203 1.8789 7.0564e-07)
(61.2152 1.4106 6.5308e-07)
(61.3135 0.97391 6.2325e-07)
(61.3573 0.56658 0.00063128)
(61.3709 0.1866 0.00065714)
(57.4776 0.67234 0.00058341)
(58.2608 1.6439 0.00058197)
(59.1436 2.0379 4.0317e-05)
(59.8404 2.0237 2.6558e-06)
(60.3279 1.8048 5.8451e-07)
(60.6456 1.4976 4.5974e-07)
(60.8401 1.1603 4.2495e-07)
(60.9514 0.81878 4.0273e-07)
(61.0087 0.48322 0.00056752)
(61.0311 0.16006 0.00058534)
(58.4426 0.39318 0.00051167)
(58.8226 1.0207 0.00051095)
(59.3293 1.3569 2.2691e-05)
(59.7887 1.4348 1.17e-06)
(60.1451 1.3444 3.3806e-07)
(60.3973 1.1579 2.8044e-07)
(60.564 0.92199 2.5301e-07)
(60.6667 0.66343 2.3539e-07)
(60.7234 0.39664 0.00050125)
(60.7472 0.13203 0.00051288)
(59.0355 0.24354 0.00043926)
(59.2311 0.65591 0.0004389)
(59.5207 0.91341 1.2408e-05)
(59.8103 1.0106 5.2468e-07)
(60.0535 0.98399 1.9399e-07)
(60.2374 0.87364 1.571e-07)
(60.3659 0.71189 1.3306e-07)
(60.4492 0.52089 1.1791e-07)
(60.4973 0.31493 0.00043286)
(60.5183 0.10528 0.00044)
(59.4154 0.15626 0.00036645)
(59.5185 0.43046 0.00036627)
(59.682 0.61822 6.4855e-06)
(59.8566 0.70652 2.4601e-07)
(60.0123 0.70812 1.0998e-07)
(60.1361 0.64404 7.9365e-08)
(60.2264 0.53477 5.6974e-08)
(60.2871 0.39667 4.2892e-08)
(60.3232 0.24204 0.0003628)
(60.3395 0.081196 0.00036685)
(59.6644 0.10165 0.0002934)
(59.7179 0.28383 0.00029332)
(59.8063 0.41596 3.161e-06)
(59.9052 0.48638 1.2957e-07)
(59.997 0.49798 6.4761e-08)
(60.0729 0.46135 3.605e-08)
(60.13 0.38878 1.4386e-08)
(60.1694 0.29154 5.3614e-10)
(60.1933 0.17915 0.00029149)
(60.2041 0.060236 0.00029357)
(59.8278 0.065214 0.00022021)
(59.8533 0.18341 0.00022017)
(59.8967 0.2722 1.3865e-06)
(59.9465 0.32336 8.542e-08)
(59.9941 0.33614 4.4252e-08)
(60.0344 0.31561 1.6064e-08)
(60.0654 0.26892 -5.3927e-09)
(60.0871 0.20335 -1.9455e-08)
(60.1004 0.12558 0.0002193)
(60.1064 0.042265 0.00022022)
(59.9302 0.039104 0.00014692)
(59.9404 0.11025 0.0001469)
(59.9573 0.16477 5.267e-07)
(59.9771 0.19777 7.263e-08)
(59.9963 0.20766 3.8029e-08)
(60.0128 0.19672 9.8622e-09)
(60.0256 0.16886 -1.1694e-08)
(60.0346 0.12841 -2.6161e-08)
(60.0401 0.079565 0.00014651)
(60.042 0.02679 0.00014682)
(59.9841 0.018179 5.3723e-08)
(59.9866 0.051795 4.3128e-08)
(59.9904 0.077984 -7.331e-05)
(59.9948 0.0941 -7.3411e-05)
(59.9991 0.099321 -7.3432e-05)
(60.0028 0.094518 -7.3449e-05)
(60.0057 0.081426 -7.3463e-05)
(60.0077 0.062113 -7.3472e-05)
(60.0088 0.038818 -9.2681e-08)
(60.0089 0.013199 -3.4464e-08)
)
;

boundaryField
{
    bump
    {
        type             noSlip;
    }
    outlet
    {
        type             zeroGradient;
    }
    inlet
    {
        type             fixedValue;
        value            uniform (60 0 0);
    }
    side1
    {
        type             empty;
    }
    side2
    {
        type             empty;
    }
    symmetry
    {
        type             symmetry;
    }
    top
    {
        type             symmetry;
    }
}

// ************************************************************************* //
