/*--------------------------------*- C++ -*----------------------------------*\\
| =========                 |                                                 |
| \\      /  F ield         | OpenFOAM: The Open Source CFD Toolbox           |
|  \\    /   O peration     | Version:  v1706                                 |
|   \\  /    A nd           | Web:      www.OpenFOAM.com                      |
|    \\/     M anipulation  |                                                 |
\\*---------------------------------------------------------------------------*/
FoamFile
{
    version     2.0;
    format      ascii;
    class       volScalarField;
    location    "10";
    object      phi;
}
// * * * * * * * * * * * * * * * * * * * * * * * * * * * * * * * * * * * * * //

dimensions      [0 0 0 0 0 0 0]


internalField   nonuniform List<scalar>
400
(
0.66665
0.26671
0.079936
0.01078
-0.00766
-0.0077957
-0.005433
-0.001855
-0.0013627
3.9806e-05
-0.0001118
3.8276e-05
3.8181e-05
1.9953e-05
8.0494e-06
2.5721e-06
5.41e-07
-4.4629e-08
-1.3495e-07
-9.6245e-08
1.0303
0.84841
0.56982
0.32355
0.15742
0.062577
0.019184
0.00039453
-0.0034258
-0.0033146
-0.0028282
-0.00134
-0.00050889
-0.00013777
2.8875e-06
4.6848e-05
5.6122e-05
5.5368e-05
5.2951e-05
5.0716e-05
1.0413
1.0602
0.95502
0.75646
0.53012
0.33307
0.18594
0.092572
0.039786
0.012897
0.00043039
-0.0021637
-0.0017781
-0.00085047
-0.00011552
0.00033139
0.00056712
0.00067918
0.00072763
0.00075166
1.0123
1.0571
1.0761
1.0213
0.8877
0.70215
0.50802
0.33686
0.20458
0.11198
0.053198
0.023475
0.010287
0.0054122
0.0041407
0.0041645
0.0045074
0.0048291
0.0050513
0.0052147
0.27339
0.65596
0.89421
1.0194
1.0426
0.97544
0.84093
0.66988
0.49515
0.33643
0.21135
0.12657
0.075307
0.047054
0.0328
0.026257
0.023592
0.022699
0.022525
0.022587
0.0074236
0.18225
0.4383
0.68862
0.87926
0.98469
0.99642
0.92832
0.798
0.63586
0.47315
0.33509
0.23256
0.16331
0.12002
0.09471
0.080796
0.073597
0.070106
0.068105
-0.022146
-0.016551
0.08581
0.27237
0.49874
0.71098
0.87213
0.95303
0.94866
0.86978
0.74227
0.59824
0.46637
0.36009
0.28195
0.22852
0.1941
0.17306
0.16078
0.1522
-0.0087848
-0.037165
-0.042025
0.016123
0.14662
0.33471
0.5402
0.72332
0.85015
0.90157
0.87742
0.79509
0.68656
0.57694
0.4812
0.40539
0.34961
0.31092
0.28537
0.26526
-0.0010902
-0.016179
-0.041867
-0.057462
-0.031038
0.053857
0.1966
0.37585
0.55861
0.70952
0.80069
0.82042
0.78511
0.71781
0.63933
0.56411
0.49992
0.44942
0.41207
0.37944
0.00030312
-0.0024324
-0.016607
-0.040962
-0.063436
-0.060938
-0.013031
0.088807
0.23673
0.40655
0.5626
0.66976
0.7208
0.72377
0.69411
0.64758
0.59656
0.54895
0.50874
0.46933
0.00029299
0.00081426
-0.0017705
-0.013903
-0.036719
-0.062335
-0.073727
-0.050796
0.02153
0.14381
0.29494
0.43616
0.54487
0.61199
0.64032
0.63914
0.61944
0.59084
0.56032
0.52492
2.2721e-05
0.00079512
0.0016146
-0.00031101
-0.0097082
-0.028951
-0.053414
-0.069557
-0.057077
0.0015624
0.1061
0.23005
0.35078
0.45064
0.52122
0.56236
0.57906
0.57839
0.56728
0.54659
1.2115e-05
0.00021304
0.0011386
0.0024269
0.0017674
-0.0047173
-0.019475
-0.039076
-0.050243
-0.033255
0.023773
0.1089
0.20892
0.30803
0.39383
0.4596
0.50396
0.5293
0.53991
0.53952
-1.053e-05
1.353e-05
0.0003508
0.0014126
0.0029887
0.0033137
-0.00056186
-0.010094
-0.019854
-0.015982
0.014584
0.067432
0.13861
0.21898
0.29852
0.36913
0.42598
0.4676
0.49502
0.51358
-6.8688e-07
-2.0401e-05
3.4476e-06
0.00034046
0.0013728
0.0029785
0.004004
0.002923
0.0017165
0.0085867
0.03269
0.070062
0.12097
0.18178
0.24686
0.31018
0.36683
0.41372
0.44976
0.48107
-1.3101e-07
-1.2651e-05
-4.9684e-05
-4.975e-05
0.00024321
0.0011546
0.0028016
0.0050586
0.0098794
0.023029
0.050104
0.084728
0.12721
0.17611
0.22887
0.28216
0.33263
0.37752
0.41512
0.45209
1.9542e-07
-2.8062e-06
-2.218e-05
-7.366e-05
-8.3158e-05
0.00016952
0.0011521
0.0036944
0.010709
0.027814
0.059067
0.096025
0.13758
0.18216
0.22828
0.27427
0.3183
0.35869
0.39411
0.43162
1.7561e-07
8.642e-08
-3.2991e-06
-2.957e-05
-7.6659e-05
-7.4421e-05
0.0003771
0.0023971
0.0095723
0.028054
0.061742
0.1013
0.14447
0.18888
0.2329
0.27535
0.31525
0.35176
0.3842
0.41993
1.268e-07
1.0632e-07
1.4799e-06
-5.6333e-06
-2.5825e-05
-5.3804e-05
0.00019761
0.0018252
0.0086533
0.027243
0.06176
0.10274
0.14745
0.1929
0.23701
0.27848
0.31656
0.35081
0.38102
0.41466
1.1274e-07
-2.0366e-07
1.4058e-06
9.1137e-07
2.7346e-06
3.2815e-07
0.00021772
0.0016707
0.008205
0.026566
0.061172
0.1027
0.14832
0.19475
0.23957
0.2812
0.3188
0.35203
0.38089
0.41286
)
;

boundaryField
{
    inlet1
    {
        type             fixedValue;
        value            uniform 1;
    }
    inlet2
    {
        type             fixedValue;
        value            uniform 0;
    }
    outlet
    {
        type             zeroGradient;
    }
    frontAndBack
    {
        type             empty;
    }
}

// ************************************************************************* //
