/*--------------------------------*- C++ -*----------------------------------*\\
| =========                 |                                                 |
| \\      /  F ield         | OpenFOAM: The Open Source CFD Toolbox           |
|  \\    /   O peration     | Version:  v1706                                 |
|   \\  /    A nd           | Web:      www.OpenFOAM.com                      |
|    \\/     M anipulation  |                                                 |
\\*---------------------------------------------------------------------------*/
FoamFile
{
    version     2.0;
    format      ascii;
    class       volScalarField;
    location    "2";
    object      T;
}
// * * * * * * * * * * * * * * * * * * * * * * * * * * * * * * * * * * * * * //

dimensions      [0 0 0 1 0 0 0]


internalField   nonuniform List<scalar>
400
(
399.637
398.9258
398.244
397.6101
397.0404
396.5482
396.1438
395.8347
395.626
395.5206
395.5201
395.6243
395.832
396.14
396.5434
397.0349
397.6042
398.2382
398.9212
399.635
398.9242
396.816
394.7953
392.9167
391.2281
389.7691
388.5701
387.6536
387.0347
386.7224
386.721
387.0304
387.6464
388.5601
389.7566
391.2137
392.9013
394.7806
396.8045
398.9193
398.2362
394.7795
391.4669
388.3877
385.6202
383.2291
381.2643
379.7626
378.7486
378.2372
378.2352
378.7426
379.7527
381.2506
383.2118
385.6004
388.3667
391.4471
394.7643
398.2298
397.5879
392.8603
388.3306
384.1208
380.3379
377.0698
374.3849
372.3331
370.9478
370.2494
370.2472
370.9411
372.3219
374.3695
377.0507
380.316
384.0978
388.309
392.8439
397.581
396.9912
391.0939
385.4443
380.195
375.4789
371.4057
368.0601
365.5038
363.7784
362.9088
362.9066
363.7717
365.4927
368.0448
371.3867
375.4574
380.1725
385.4233
391.0779
396.9845
396.4546
389.5045
382.848
376.6649
371.1119
366.3174
362.3807
359.3738
357.3448
356.3226
356.3205
357.3385
359.3634
362.3665
366.2999
371.0922
376.6445
382.8291
389.4901
396.4485
395.982
388.1044
380.5619
373.5591
367.273
361.8484
357.3968
353.9981
351.7057
350.5513
350.5494
351.7
353.9888
357.3842
361.8331
367.2558
373.5415
380.5458
388.0921
395.9767
395.573
386.8928
378.5857
370.8781
363.9651
358.0046
353.1172
349.3885
346.8749
345.6097
345.608
346.8699
349.3803
353.1063
357.9916
363.9508
370.8637
378.5725
386.8827
395.5687
395.2229
385.8558
376.898
368.5958
361.159
354.7558
349.512
345.5158
342.8243
341.4704
341.4689
342.8199
345.5088
349.5027
354.745
361.1475
368.5844
376.8877
385.8479
395.2194
394.9221
384.9661
375.4568
366.6593
358.7953
352.0388
346.5169
342.3159
339.4902
338.07
338.0687
339.4863
342.3098
346.509
352.03
358.7862
366.6506
375.4493
384.9603
394.9195
394.6559
384.1819
374.1983
364.9892
356.7853
349.7608
344.0378
339.6953
336.78
335.3166
335.3154
336.7765
339.6899
344.0312
349.7537
356.7783
364.983
374.1932
384.178
394.654
394.403
383.4431
373.0327
363.477
355.0111
347.8014
341.9557
337.5374
334.5798
333.0977
333.0967
334.5767
337.5328
341.9502
347.7959
355.0062
363.473
373.0298
383.4409
394.4019
394.1324
382.6638
371.8362
361.9792
353.3238
346.0144
340.1307
335.7092
332.7617
331.2884
331.2874
332.759
335.7053
340.1263
346.0103
353.3207
361.9774
371.8354
382.6634
394.132
393.7966
381.7171
370.4349
360.3058
351.5374
344.2275
338.406
334.0671
331.1913
329.7587
329.7579
331.189
334.064
338.4028
344.2251
351.5363
360.3062
370.4362
381.7184
393.7969
393.3163
380.4033
368.5754
358.2024
349.4231
342.2441
336.6138
332.4648
329.7359
328.3827
328.3821
329.7343
332.4627
336.612
342.2434
349.424
358.2049
368.5788
380.4061
393.3173
392.543
378.3835
365.8736
355.3248
346.7034
339.8487
334.5848
330.7633
328.2744
327.0471
327.0467
328.2734
330.7622
334.5845
339.8498
346.7063
355.3293
365.8788
378.3878
392.5446
391.1519
375.0357
361.7296
351.2139
343.0594
336.8243
332.166
328.8461
326.7091
325.6622
325.662
326.7088
328.8461
332.1669
336.8268
343.0639
351.22
361.7362
375.0411
391.154
388.2906
369.1359
355.2109
345.2977
338.1703
332.9923
329.2503
326.6389
324.979
324.1714
324.1714
324.9792
326.6396
329.2522
332.9957
338.1755
345.3044
355.218
369.1416
388.2929
381.2458
358.1954
344.9849
337.0023
331.8245
328.2862
325.8187
324.1317
323.0719
322.5593
322.5594
323.0723
324.1327
325.8206
328.2894
331.829
337.0079
344.9908
358.2002
381.2478
359.7927
337.5311
329.7174
326.1507
324.1399
322.8523
321.9813
321.3947
321.029
320.8528
320.8529
321.0293
321.3953
321.9823
322.8538
324.142
326.1533
329.7201
337.5333
359.7937
)
;

boundaryField
{
    movingWall
    {
        type             fixedValue;
        value            uniform 320;
    }
    fixedWalls
    {
        type             fixedValue;
        value            uniform 400;
    }
    frontAndBack
    {
        type             empty;
    }
}

// ************************************************************************* //
