/*--------------------------------*- C++ -*----------------------------------*\\
| =========                 |                                                 |
| \\      /  F ield         | OpenFOAM: The Open Source CFD Toolbox           |
|  \\    /   O peration     | Version:  v1706                                 |
|   \\  /    A nd           | Web:      www.OpenFOAM.com                      |
|    \\/     M anipulation  |                                                 |
\\*---------------------------------------------------------------------------*/
FoamFile
{
    version     2.0;
    format      ascii;
    class       volScalarField;
    location    "3";
    object      T;
}
// * * * * * * * * * * * * * * * * * * * * * * * * * * * * * * * * * * * * * //

dimensions      [0 0 0 1 0 0 0]


internalField   nonuniform List<scalar>
400
(
399.7801
399.3479
398.9319
398.5426
398.1897
397.8818
397.6263
397.4293
397.2953
397.2273
397.2268
397.294
397.4273
397.6237
397.8786
398.1861
398.539
398.9286
399.3454
399.7791
399.3455
398.059
396.8208
395.6622
394.6121
393.6961
392.9361
392.35
391.9513
391.7492
391.748
391.948
392.3447
392.929
393.6876
394.6028
395.6528
396.8122
398.0525
399.3428
398.9197
396.7964
394.7532
392.8417
391.1095
389.5989
388.3458
387.3796
386.7226
386.3895
386.3879
386.7179
387.372
388.3356
389.5868
391.0964
392.8285
394.7413
396.7875
398.9161
398.5082
395.5762
392.7554
390.1173
387.7273
385.6436
383.9157
382.584
381.6785
381.2198
381.218
381.6731
382.5751
383.9041
385.6297
387.7122
390.1023
392.742
395.5663
398.5042
398.1155
394.4114
390.849
387.5184
384.5025
381.8743
379.696
378.0177
376.8772
376.2997
376.2978
376.8716
378.0086
379.684
381.8602
384.4872
387.5032
390.8354
394.4014
398.1114
397.7443
393.3108
389.0484
385.0655
381.4612
378.3224
375.7226
373.7209
372.3613
371.6733
371.6715
372.356
373.7123
375.7114
378.3091
381.4469
385.0513
389.0357
393.3015
397.7405
397.3959
392.2775
387.3593
382.7673
378.6157
375.0039
372.0152
369.7161
368.1557
367.3667
367.3651
368.1511
369.7087
372.0055
374.9924
378.6033
382.7551
387.3484
392.2694
397.3925
397.0689
391.3083
385.7775
380.6194
375.9625
371.9173
368.5747
366.0066
364.2655
363.3857
363.3845
364.2618
366.0007
368.567
371.9082
375.9528
380.6098
385.7689
391.3019
397.0662
396.7596
390.3922
384.2861
378.6016
373.4804
369.0416
365.3816
362.5747
360.6745
359.7154
359.7146
360.6719
362.5707
365.3763
369.0353
373.4737
378.595
384.2801
390.3876
396.7576
396.4606
389.5083
382.8537
376.6756
371.1275
366.3347
362.3951
359.3818
357.346
356.32
356.3195
357.3446
359.3797
362.3923
366.3314
371.124
376.6721
382.8504
389.5057
396.4593
396.1602
388.6235
381.4306
374.7813
368.8394
363.7319
359.5528
356.3684
354.2232
353.1442
353.1441
354.223
356.3682
359.5526
363.7317
368.8391
374.781
381.4301
388.6228
396.1597
395.8405
387.6873
379.9431
372.8319
366.5252
361.1442
356.7705
353.4559
351.2319
350.1161
350.1165
351.2329
353.4575
356.7727
361.1468
366.5279
372.8346
379.9452
387.6885
395.8407
395.4737
386.6239
378.2833
370.7057
364.0626
358.4567
353.9435
350.5491
348.2841
347.1516
347.1523
348.2861
350.5523
353.9478
358.4618
364.0681
370.7111
378.2878
386.6268
395.4745
395.0154
385.3157
376.2928
368.2338
361.2919
355.5276
350.9488
347.5409
345.2835
344.1599
344.1609
345.2864
347.5455
350.9549
355.5348
361.2997
368.2414
376.2993
385.3201
395.0169
394.3896
383.572
373.733
365.1816
358.009
352.1889
347.6507
344.3195
342.1338
341.052
341.0531
342.1373
344.325
347.6581
352.1977
358.0185
365.191
373.7412
383.5776
394.3915
393.4506
381.0629
370.2343
361.2249
353.9607
348.2534
343.9112
340.7797
338.7491
337.7508
337.7521
338.7529
340.7858
343.9193
348.263
353.9712
361.2352
370.2433
381.0692
393.4528
391.8768
377.1755
365.2116
355.9246
348.8529
343.5328
339.6093
336.8394
335.0676
334.2031
334.2044
335.0713
336.8454
339.6174
343.5424
348.8634
355.935
365.2208
377.182
391.8792
388.819
370.6954
357.7484
348.7301
342.3911
337.8791
334.6719
332.4605
331.0662
330.3913
330.3924
331.0695
332.4658
334.679
337.8876
342.4004
348.7394
357.7567
370.7013
388.8212
381.5674
359.1445
346.529
339.0907
334.3922
331.2588
329.1162
327.6722
326.7737
326.3417
326.3425
326.776
327.676
329.1213
331.2649
334.3989
339.0975
346.5352
359.149
381.5692
359.9012
337.8511
330.2379
326.8546
325.0051
323.8536
323.0918
322.5868
322.2752
322.1261
322.1264
322.2762
322.5883
323.0938
323.856
325.0077
326.8573
330.2405
337.853
359.9019
)
;

boundaryField
{
    movingWall
    {
        type             fixedValue;
        value            uniform 320;
    }
    fixedWalls
    {
        type             fixedValue;
        value            uniform 400;
    }
    frontAndBack
    {
        type             empty;
    }
}

// ************************************************************************* //
