/*--------------------------------*- C++ -*----------------------------------*\\
| =========                 |                                                 |
| \\      /  F ield         | OpenFOAM: The Open Source CFD Toolbox           |
|  \\    /   O peration     | Version:  v1706                                 |
|   \\  /    A nd           | Web:      www.OpenFOAM.com                      |
|    \\/     M anipulation  |                                                 |
\\*---------------------------------------------------------------------------*/
FoamFile
{
    version     2.0;
    format      ascii;
    class       surfaceScalarField;
    location    "0.2";
    object      mdot_f;
}
// * * * * * * * * * * * * * * * * * * * * * * * * * * * * * * * * * * * * * //

dimensions      [1 0 -1 0 0 0 0]


internalField   nonuniform List<scalar>
906
(
-0.02492
0.018007
0.0038379
0.0030757
-0.0045754
-0.019351
-0.00099367
-0.030461
0.034181
0.019603
-0.023323
0.035371
-0.031939
-0.033893
0.0056969
0.064673
-0.063827
-0.0065427
0.0027934
-0.065088
0.067992
-0.038834
0.036913
-0.0015149
0.0034359
-0.02283
0.015815
-0.031819
-0.069988
0.043391
-0.00898
0.035577
-0.0021062
0.001849
-0.069731
0.055489
-0.011056
0.013628
-0.058061
0.015848
-0.0056377
0.045279
-0.024153
-0.017624
0.0082271
0.03355
-0.029639
0.035283
-0.029796
0.046466
-0.011432
0.075439
-0.063873
0.0042823
0.00027741
0.071682
0.0034786
-0.0049854
-0.069944
0.021378
-0.014096
-0.0072818
-0.0029409
0.024319
0.014613
-0.021536
-0.0071731
0.036852
-0.019207
0.017022
-0.034667
0.039504
0.028583
-0.031235
0.037984
-0.021857
-0.029229
0.013102
0.041911
0.025676
-0.029603
0.032483
-0.0097791
-0.02067
0.019821
0.04424
-0.06764
0.053002
-0.0060317
-0.067556
-0.0021909
-0.0031642
0.0047518
0.019188
-0.020776
0.0058641
0.0024007
-0.011429
0.049303
-0.031653
0.024278
-0.041928
0.051443
0.011488
-0.05021
0.012183
0.011688
-0.040994
0.064159
0.012207
-0.025971
-0.041116
0.026092
-0.041052
-0.016858
0.0086603
0.044783
-0.0097151
-0.043728
0.035577
-0.0036642
-0.023252
0.0023267
0.038002
0.057824
-0.010714
0.03609
0.0097091
-0.019608
-0.0072057
0.017105
-0.01751
0.024948
0.0022704
-0.023218
-0.0139
-0.0037192
0.058334
0.0095434
0.02325
0.00018295
-0.030638
0.020904
0.019451
0.047029
0.0070303
-0.0075929
-0.041133
0.046528
0.015509
0.006078
0.0027137
0.0026988
0.0029135
-0.041252
-0.024398
0.00058016
-0.010075
-0.048418
0.026934
0.034765
0.0096337
0.0090222
0.040358
0.0019554
-0.013498
0.041812
0.0025024
-0.0022505
-0.0045972
0.006106
0.041931
0.00087963
0.008541
-0.039192
0.011979
0.043028
0.0073497
0.021799
0.0052564
0.043245
-0.0020383
-0.046463
0.039843
0.0023252
0.0012063
0.043129
-0.0010914
0.039322
0.0017273
0.0010012
0.04267
-0.000542
0.039011
0.001311
0.00047632
0.042529
-0.00033567
0.039085
0.0004016
0.00044369
0.042394
-0.00031001
0.039159
0.00036857
-7.4703e-06
0.042689
-0.00028797
0.03936
-0.0002093
-1.4016e-05
0.042578
0.00012432
0.039584
-0.00023775
2.3084e-05
0.042959
-0.00040464
0.039967
-0.00036066
5.1401e-06
-0.00017927
0.043133
0.039941
3.1111e-05
-0.069367
0.0064755
0.065685
0.0054573
-0.06624
-0.0043054
-0.067622
0.0037128
0.0034704
-0.0037804
-0.06593
0.0026848
-0.066837
-0.064398
-0.0037344
-0.065253
-0.0029253
0.063481
0.0016919
0.068213
0.0072465
0.063319
0.0028559
0.06177
0.00045631
0.060832
0.00039556
0.060369
0.0001266
0.059876
0.00018224
0.059928
-0.00034038
0.060372
-0.00032018
0.060424
-0.00045785
0.060092
0.00015311
0.070655
-0.00026225
-0.00025432
0.040457
-0.00025705
0.043128
-0.00081282
0.060647
-0.068051
0.06859
0.003174
-0.067396
0.0020294
-0.0020631
0.0014079
-0.06674
-0.0024316
-0.066468
-0.0023229
-0.066039
-0.065849
-0.0017271
0.069616
0.010517
0.064172
0.003929
0.064368
0.0021286
0.0638
0.0022949
0.063499
0.0016117
0.063104
0.00079608
0.062997
0.00047513
0.063366
-0.00057869
0.063845
-0.00071695
0.063543
-5.9565e-05
0.063313
0.00026107
-0.00072295
0.063782
0.072624
0.074556
0.0053144
0.074229
0.0031828
0.072606
0.0020788
0.071979
0.0010218
0.07154
0.00056499
0.071357
0.00036559
0.071318
-0.00030221
0.071285
-0.00028756
0.070688
0.00013881
0.071052
-0.00021098
0.071283
-0.0010434
0.0056852
0.06938
0.057081
-0.077037
0.021805
0.0088508
0.03925
-0.070013
-0.0013383
-0.067973
0.0011335
-0.067402
0.0014589
-0.066799
0.00080521
-0.0010501
0.00063889
-0.066388
-0.0014157
-0.066375
-0.0015989
-0.066285
-0.0011057
-0.066532
-0.00085573
-0.066099
0.065708
-0.066375
-0.00018825
0.064998
-0.001017
0.064046
-0.0019736
0.063716
-0.003405
0.061208
-0.004034
0.055135
-0.0053599
0.050206
-0.002664
0.052609
0.0036757
0.050652
0.0046558
0.066447
0.010297
0.067042
0.0089486
0.07142
0.0061385
0.07165
0.0036992
0.070694
0.003084
0.071251
0.001738
0.071369
0.0014932
0.071597
0.0005679
0.071656
0.00041524
0.071859
-0.0007817
0.071997
-0.00085532
0.071747
0.00019067
0.071747
0.00026034
0.07184
-0.0008163
0.00056235
-0.00047512
0.071753
0.00042006
0.063924
0.00024752
0.04063
-0.0003109
0.043686
-0.000288
0.060625
0.071099
-0.0001045
-0.0041225
0.042318
0.013488
0.048075
0.045793
0.037075
0.03613
0.031467
0.023067
0.021915
0.027328
0.034989
0.028003
0.034902
-0.070083
-0.0009865
-0.068703
-0.00024598
-0.067733
0.00048818
-0.067271
0.00034382
-0.066919
0.0002871
-0.00086142
-0.06623
0.00017238
-0.00058668
-0.066663
-0.00033645
-0.066625
-2.0845e-05
-0.066601
4.2501e-05
-0.066595
0.00021273
-0.066269
0.00041465
-0.066577
0.066099
-0.066587
0.00090255
0.065748
0.00016256
0.065235
-0.00050416
0.06492
-0.0016587
0.063723
-0.0022079
0.062528
-0.0028389
0.059652
-0.002484
0.057732
-0.00074462
0.057067
0.004341
0.060965
0.00075754
0.066304
0.0049581
0.070047
0.0052053
0.072127
0.0040586
0.072722
0.0031041
0.073703
0.0021024
0.073622
0.0018191
0.073875
0.0012392
0.074379
6.396e-05
0.075355
-0.00056146
0.074654
-8.0688e-05
0.074342
-0.00054358
0.0748
-0.00026807
0.074464
0.00059621
0.073726
-7.8362e-05
0.074239
-0.00098735
0.00058735
-0.00020656
0.073858
0.0005033
0.071837
0.00029677
0.064131
-5.4514e-05
0.040981
-0.00021418
0.043846
-0.00010079
0.060511
-0.00036118
0.071359
-0.074079
-0.00021203
0.07393
-0.073275
-0.000908
-0.074206
-0.00011226
-0.074296
-0.00012222
-0.074023
-0.00013439
-0.074157
-0.00015405
-0.07427
-0.00018899
-0.074324
0.00041855
-0.074469
0.00070978
-0.074704
0.0012565
-0.074811
0.0021851
-0.074481
0.0028527
0.0025154
-0.036571
-0.0028248
0.066861
-0.065915
-0.0059324
0.069758
0.0013851
0.071485
0.0017517
0.072257
0.0017436
0.07362
0.001489
0.074617
0.0011884
0.074684
0.0011891
0.075107
0.00028598
0.075647
-0.00012169
0.075554
-9.713e-05
0.075478
-7.8548e-05
0.07541
-6.6631e-05
0.075347
-5.9186e-05
0.075288
-5.3785e-05
0.074429
-4.9037e-05
0.074264
-4.7639e-05
-0.00013283
0.00058104
-0.066679
-0.0001301
-0.066666
-0.00010155
-0.066654
-5.6368e-05
-0.066646
-7.7121e-06
-0.066644
0.00037147
-0.066649
0.00045154
-0.066657
0.00053199
-0.066667
0.06653
0.00067703
-0.066675
0.067379
5.4132e-05
0.067446
9.5194e-05
0.06678
0.00016211
0.065793
-0.00067153
0.064693
-0.0011082
0.062614
-0.00075954
0.060861
-0.00073122
0.060328
-0.00021206
0.063146
0.0015226
0.063232
0.00067148
0.06603
0.0021602
0.069
0.0022352
0.071237
0.001822
0.073082
0.0012589
0.073816
0.0013682
0.074844
0.00078992
0.076158
-7.4893e-05
0.076287
-6.5427e-05
0.075779
-5.3553e-05
0.075741
-4.2969e-05
0.075232
-3.5618e-05
0.074998
-3.371e-05
0.075631
-3.6906e-05
0.07559
-3.8043e-05
0.074638
-3.5743e-05
0.074467
-3.4624e-05
0.00047589
-0.00053797
0.074529
0.00010323
0.074231
0.00012665
0.071814
0.00010018
0.064158
-4.2909e-05
0.041125
-0.00020185
0.044005
-0.0007513
0.061061
-0.00061237
0.071221
-0.000626
0.073943
0.073686
-4.819e-05
-0.0011718
0.025866
0.014356
0.032547
0.019959
0.031472
0.022762
0.028663
0.018566
0.026111
0.023288
0.030266
0.02206
0.029232
0.02276
0.031964
0.0088844
0.035936
-0.0022443
0.043092
-0.0032943
0.04529
0.050803
-0.001095
-0.06807
-0.00047256
-0.067985
-0.00033093
-0.067459
-3.7112e-05
-0.067143
2.7938e-05
-0.066776
-7.9954e-05
-0.066818
0.00021381
0.00045254
-0.066689
-0.01786
0.053135
0.015529
-0.0088688
-0.015572
0.0070258
-0.0082601
0.0021139
-0.013272
-0.010151
-0.028673
-0.042392
0.04601
-0.01858
0.021617
-0.034397
-0.02624
-0.00069669
-0.0060024
-0.042324
-0.018391
-0.023553
-0.036505
-0.02769
-0.028522
-0.036698
-0.033316
-0.025086
-0.01603
0.040542
-0.019121
0.039026
-0.020047
0.030158
-0.018642
0.02886
-0.017729
0.025198
-0.013364
0.024298
-0.0082683
0.026377
-0.0036717
0.02795
0.030421
0.032897
0.0026078
-0.026911
-0.026198
-0.0067988
-0.019898
-0.011916
-0.032555
-0.023848
0.039087
-0.02363
-0.0459
0.0036051
0.032493
-0.026722
-0.027264
0.036753
-0.021357
0.036255
-0.026224
0.029742
-0.02094
-0.026085
0.0052818
0.027747
0.026332
-0.018412
-0.021611
0.0091638
0.024068
0.012155
0.023386
-0.00058831
-0.015722
0.022509
0.020731
-0.016587
0.017485
0.004838
0.018642
0.01127
0.016954
0.015414
-0.020812
0.0090682
0.0031797
0.0082891
0.013241
0.0068928
0.0078428
0.067357
-0.06668
0.067411
0.067506
0.067668
0.066997
0.065889
0.065129
0.064398
0.064186
0.065708
0.06638
0.06854
0.070775
0.072597
0.073856
0.075224
0.076013
0.075938
0.075873
0.075819
0.075776
0.07574
0.075706
0.075669
0.075631
0.075595
0.075561
0.075023
0.00025206
6.9725e-05
8.3107e-05
9.9676e-05
6.7159e-05
-5.2873e-05
-0.00016928
-0.00020684
-0.00016268
-0.00011058
-0.00077183
-0.075156
-0.075204
-0.075252
-0.075301
-0.075355
-0.075414
-0.075481
-0.07556
-0.075657
-0.075779
-0.075493
-0.074304
-0.073116
-0.071627
-0.069884
-0.068132
-0.066747
-0.07268
-0.057151
-0.058246
-0.064278
-0.066469
-0.066941
-0.067272
-0.067309
-0.067282
-0.067361
-0.067148
-0.066695
-2.8442e-05
-5.1063e-05
-6.3031e-05
-6.1971e-05
-4.8908e-05
-2.8042e-05
-5.4404e-06
1.2695e-05
2.227e-05
2.1908e-05
1.3224e-05
0.015743
-0.0079001
0.024811
0.037913
0.028134
0.031739
0.0078909
-0.0040247
-0.0019108
0.0041952
0.0019448
-0.021378
-0.020798
-0.023622
0.0010073
)
;

boundaryField
{
    bottom
    {
        type             calculated;
        value            uniform 0;
    }
    inlet
    {
        type             calculated;
        value            nonuniform List<scalar>
12
(
-0.066667
-0.066667
-0.066667
-0.066667
-0.066667
-0.066667
-0.066667
-0.066667
-0.066667
-0.066667
-0.066667
-0.066667
)
;
    }
    object
    {
        type             calculated;
        value            uniform 0;
    }
    outlet
    {
        type             calculated;
        value            nonuniform List<scalar>
12
(
0.074757
0.074364
0.074322
0.073858
0.071159
0.061111
0.044186
0.041316
0.064207
0.071794
0.074206
0.074697
)
;
    }
    side1
    {
        type             calculated;
        value            uniform 0;
    }
    side2
    {
        type             calculated;
        value            uniform 0;
    }
    top
    {
        type             calculated;
        value            uniform 0;
    }
}

// ************************************************************************* //
