/*--------------------------------*- C++ -*----------------------------------*\\
| =========                 |                                                 |
| \\      /  F ield         | OpenFOAM: The Open Source CFD Toolbox           |
|  \\    /   O peration     | Version:  v1706                                 |
|   \\  /    A nd           | Web:      www.OpenFOAM.com                      |
|    \\/     M anipulation  |                                                 |
\\*---------------------------------------------------------------------------*/
FoamFile
{
    version     2.0;
    format      ascii;
    class       volScalarField;
    location    "0.2";
    object      p;
}
// * * * * * * * * * * * * * * * * * * * * * * * * * * * * * * * * * * * * * //

dimensions      [0 2 -2 0 0 0 0]


internalField   nonuniform List<scalar>
479
(
-14.9335
-22.7594
-20.0844
-11.2419
14.5317
15.1915
1.6906
0.62446
10.0336
11.0861
-7.2499
-6.6328
18.9774
16.7916
15.1638
-4.3116
-4.2343
-3.6126
49.7305
27.9686
33.8768
-12.8109
-10.7671
-2.606
-9.4902
-20.3529
8.2585
8.092
9.8061
-8.9048
-15.0611
-10.6696
-11.3253
-8.7958
-6.6637
-9.7716
-5.8228
-10.6195
-10.8698
-11.3109
-7.0826
-7.2312
-9.9498
14.2491
15.4515
16.7804
-7.9209
14.2328
9.9302
14.3183
5.9357
11.7671
0.16854
-7.4043
-23.5895
-16.0956
5.9432
-1.7623
17.2333
17.0938
-14.0177
-35.4645
-30.0728
-10.2786
-23.3867
-3.0698
0.31625
-2.9543
-4.9827
0.573
0.93137
0.095775
0.2691
-0.027847
0.066386
-0.051274
0.096869
-0.047008
0.07356
-0.03356
0.053099
-0.068238
0.0043762
-0.070351
-0.021435
-0.095964
-0.080128
14.9718
14.3757
14.2579
13.8562
13.773
14.0234
13.6748
-4.1903
-2.5724
-0.91731
-0.4808
-0.44791
-0.35683
-0.24636
-0.15335
-0.13185
-0.080455
-0.11014
-6.5832
-0.083746
-0.085184
-0.071278
13.796
13.4609
13.2515
13.4626
13.5287
13.4386
-6.1832
-0.76616
0.15303
-0.17985
-0.30057
-0.15
-0.079333
-0.012688
-0.015761
-0.059157
-0.13762
-0.089255
-4.7385
-3.6171
-2.3248
-1.4481
-1.0232
-0.7552
-0.54902
-0.37661
-0.28058
-0.2215
-0.2078
-0.13355
14.3274
13.0712
12.3714
13.0671
13.0169
12.9684
12.9359
12.9172
13.1241
13.2697
13.3245
13.2848
13.179
13.2466
13.3333
13.4231
13.452
13.1892
11.9035
8.6186
2.7088
-2.5212
-5.6014
-5.173
-2.5627
-1.1046
-0.75704
-0.64887
-0.46265
-0.31243
-0.18795
-0.15291
-0.18279
-0.20214
-0.13792
-0.097952
-0.025183
-0.022786
-0.035691
-0.033899
-0.11582
16.4021
16.0486
15.2919
14.596
13.8685
11.5245
9.4825
11.7932
12.1958
12.4429
12.5997
12.6986
12.7606
12.9078
13.0493
13.1533
13.2006
13.1882
13.132
13.0568
13.0494
13.0262
12.9649
12.8184
12.4867
11.769
10.2757
7.5647
3.5679
-0.35895
-2.8073
-3.1713
-2.1593
-1.1594
-0.70121
-0.53296
-0.39607
-0.27097
-0.17157
-0.13286
-0.13349
-0.1263
-0.094227
-0.073364
-0.06276
-0.071525
0.019605
0.062275
0.031545
-0.0097065
-0.092739
-0.091403
-0.12631
-0.15515
-0.2145
-0.27507
-0.35404
-0.47647
-0.65853
-0.88697
-1.2029
-1.7031
-2.5004
-3.4821
-10.6356
-1.3401
-2.7273
-3.2628
-2.9925
-2.3863
-1.7947
-1.3484
-1.0329
-0.79719
-0.61079
-0.46907
-0.36488
-0.28687
-0.22823
-0.18864
-0.16875
12.7962
12.9039
13.0088
13.0893
13.1319
13.1337
13.1039
13.0587
13.0161
12.9891
12.9368
12.8407
12.6677
12.36
11.8227
10.8985
9.3795
7.09
4.0785
1.0333
-1.0952
-1.9147
-1.7317
-1.2219
-0.85526
-0.66815
-0.54075
-0.42437
-0.32803
-0.26288
-0.22544
-0.20031
-0.17345
-0.14808
-0.13328
-0.12393
-0.059975
-0.059922
0.045656
0.13748
0.10939
0.053711
-0.051109
-0.10363
-0.17789
18.1871
17.873
17.3822
16.3926
15.0111
12.0854
9.3375
7.8923
7.2651
6.1678
6.066
5.5999
10.8975
11.5915
12.0415
12.3351
12.5237
12.6416
12.7087
2.6897
-14.1938
-29.5374
-20.5875
-13.9446
-12.3612
3.4823
-0.064353
4.1622
-2.1908
-17.6391
-9.0742
-4.9847
-1.7996
0.94728
4.014
5.325
8.3234
12.2966
16.2594
18.7829
20.2367
20.9276
20.9305
20.2355
21.9172
22.51
21.8554
-28.1562
-13.5029
1.4406
-9.6987
-24.0224
-1.6635
-5.8728
2.4921
-1.5828
-7.3463
5.6777
0.43664
23.6852
11.299
8.0572
25.1094
24.3332
27.2228
17.6218
22.0294
18.719
30.6133
30.2866
26.7113
17.0353
39.2777
39.0581
33.1559
12.9911
12.9501
12.8723
12.7359
12.5031
12.1136
11.4784
10.4784
8.9783
6.9032
4.3035
1.6886
-0.29826
-1.2969
-1.4354
-1.1568
-0.85472
-0.65664
-0.52296
-0.41016
-0.31352
-0.24108
-0.19473
-0.16618
-0.14343
-0.12385
-0.11176
-0.10662
-0.094347
-0.10844
-0.055837
-0.041374
0.070892
0.19576
0.17606
0.074504
-0.083241
-0.15662
-0.17466
-0.14162
-0.16373
-0.17496
-0.19827
-0.23964
-0.30023
-0.38357
-0.4963
-0.64562
-0.83713
-1.0806
-1.3978
-1.8077
-2.2706
-2.6245
-2.5785
-1.8071
-0.11787
2.3518
5.0731
7.4358
9.1621
10.3954
11.2468
11.8164
12.1885
12.4273
12.5759
12.6602
12.694
12.7357
12.8105
12.9026
12.9931
13.0643
13.1047
13.1119
13.0925
13.059
13.0264
13.0068
49.6292
16.213
-32.2971
-63.7148
-73.9791
-61.5529
-45.9793
-36.7724
-35.1404
-39.2476
-47.0396
-51.5388
-49.8882
-12.2269
56.3064
56.64
1.6964
-16.7004
)
;

boundaryField
{
    bottom
    {
        type             symmetry;
    }
    inlet
    {
        type             zeroGradient;
    }
    object
    {
        type             zeroGradient;
    }
    outlet
    {
        type             fixedValue;
        value            uniform 0;
    }
    side1
    {
        type             empty;
    }
    side2
    {
        type             empty;
    }
    top
    {
        type             symmetry;
    }
}

// ************************************************************************* //
