/*--------------------------------*- C++ -*----------------------------------*\\
| =========                 |                                                 |
| \\      /  F ield         | OpenFOAM: The Open Source CFD Toolbox           |
|  \\    /   O peration     | Version:  v1706                                 |
|   \\  /    A nd           | Web:      www.OpenFOAM.com                      |
|    \\/     M anipulation  |                                                 |
\\*---------------------------------------------------------------------------*/
FoamFile
{
    version     2.0;
    format      ascii;
    class       volVectorField;
    location    "0.2";
    object      U;
}
// * * * * * * * * * * * * * * * * * * * * * * * * * * * * * * * * * * * * * //

dimensions      [0 1 -1 0 0 0 0]


internalField   nonuniform List<vector>
479
(
(5.3796 -1.7936 7.0891e-07)
(6.9643 -1.4513 6.856e-07)
(10.5714 -0.080989 5.3158e-07)
(11.9071 -0.23692 5.953e-07)
(9.8301 0.20541 3.7375e-07)
(9.7252 0.091402 2.3417e-07)
(5.5203 -0.099023 1.3697e-06)
(5.4251 -0.25186 1.3869e-06)
(10.3076 -0.44804 7.5198e-06)
(10.2197 -0.35408 8.4543e-06)
(11.7774 -0.26435 2.3664e-05)
(11.696 -0.030499 2.2422e-05)
(9.3489 0.38298 3.8908e-07)
(9.5729 0.40335 5.0779e-07)
(9.8 0.41121 7.9257e-07)
(11.5951 -0.015108 6.6454e-05)
(11.5533 0.053443 6.5961e-05)
(11.5769 -0.2084 7.7905e-05)
(6.3097 3.2289 2.5773e-07)
(8.626 5.6774 2.7882e-07)
(6.7579 1.9016 2.6618e-07)
(12.0604 -0.97272 2.1055e-06)
(11.8774 -0.85099 4.9782e-06)
(10.9738 -3.0045 2.6983e-07)
(11.6717 -2.4663 4.8675e-07)
(12.258 -1.2218 4.677e-07)
(10.5153 -0.42637 7.4321e-05)
(10.5387 -0.24369 0.00021582)
(10.3644 -0.2416 0.00019038)
(5.0929 1.8247 2.7863e-06)
(2.1172 1.8448 2.1295e-06)
(11.7855 -0.034972 7.2599e-06)
(11.7895 0.048417 1.0843e-05)
(11.837 -0.55931 1.3425e-05)
(3.0681 -1.0122 1.1252e-06)
(11.7997 -0.014996 7.6542e-07)
(11.6523 0.63209 8.6197e-07)
(11.7959 1.0263 6.5445e-07)
(11.0966 0.57998 6.415e-06)
(8.782 1.2262 4.0302e-06)
(7.8259 1.2772 3.9134e-06)
(10.7722 0.58006 8.3282e-06)
(11.6334 0.21744 1.0827e-05)
(9.556 2.0913 5.0176e-07)
(9.6168 2.4699 4.9106e-07)
(9.267 1.907 4.7903e-07)
(11.5083 -0.32102 7.8482e-07)
(9.8526 1.4701 5.5868e-07)
(10.0786 1.892 5.3855e-07)
(9.9397 0.77313 1.2475e-06)
(10.7526 1.3421 9.94e-07)
(10.3312 1.0238 1.2305e-06)
(11.3156 1.0629 9.8649e-07)
(11.6342 1.4925 6.947e-07)
(12.2658 -0.73751 5.0585e-07)
(12.2896 1.3349 4.8019e-07)
(10.4352 2.4265 5.1841e-07)
(11.1585 1.9921 6.692e-07)
(9.5649 0.8126 6.2459e-07)
(9.5547 1.1785 5.6084e-07)
(10.5678 -0.65848 6.4115e-07)
(8.3648 -0.6985 6.4265e-07)
(-1.5751 -0.29301 1.102e-06)
(9.6259 -1.0579 6.7579e-07)
(-2.1915 -0.75105 1.3469e-06)
(3.4521 0.53041 2.1722e-06)
(6.0062 0.37463 2.9458e-06)
(6.5994 0.98356 3.5808e-06)
(7.6864 -0.85394 7.979e-07)
(6.2172 0.17206 2.9406e-06)
(5.7168 -0.014609 1.5847e-06)
(6.3281 0.12014 2.9414e-06)
(5.8107 0.018122 1.5991e-06)
(6.3772 0.080437 2.892e-06)
(5.85 0.045032 1.5972e-06)
(6.4072 0.045368 2.8152e-06)
(5.8681 0.056129 1.5692e-06)
(6.4318 0.02174 2.7289e-06)
(5.887 0.059802 1.5328e-06)
(6.4539 0.0075671 2.6346e-06)
(5.9203 0.056574 1.4747e-06)
(6.454 -0.0016602 2.512e-06)
(5.9542 0.048799 1.4127e-06)
(6.4814 -0.0047483 2.4249e-06)
(6.0004 0.043388 1.3471e-06)
(6.4973 -0.0056564 2.3179e-06)
(6.0131 0.042302 1.2822e-06)
(9.7508 -0.08448 2.2053e-07)
(9.8348 0.02874 2.2418e-07)
(9.8419 -0.068673 2.2163e-07)
(9.8999 0.005349 2.2445e-07)
(9.9042 -0.054736 2.2335e-07)
(9.8853 0.10797 2.5168e-07)
(9.9271 0.055415 2.253e-07)
(10.0927 0.58514 7.7531e-06)
(9.3196 0.42052 6.9339e-06)
(9.1975 0.29048 6.8509e-06)
(9.1672 0.21522 6.7515e-06)
(9.158 0.16136 6.6352e-06)
(9.1454 0.12239 6.5033e-06)
(9.1318 0.096169 6.3574e-06)
(9.131 0.07981 6.2491e-06)
(9.1263 0.07104 6.1248e-06)
(9.132 0.065561 6.0184e-06)
(9.1254 0.062836 5.838e-06)
(11.5365 0.15631 1.7232e-05)
(6.0486 0.036574 1.2188e-06)
(6.517 -0.0026956 2.22e-06)
(9.1395 0.063325 5.7799e-06)
(9.8904 -0.15487 2.1594e-07)
(9.935 -0.10591 2.1745e-07)
(9.9633 -0.070931 2.1919e-07)
(9.9446 -0.040131 2.2534e-07)
(9.9415 -0.004128 2.2649e-07)
(9.9557 0.027376 2.2247e-07)
(10.1904 -0.49394 8.1105e-07)
(9.8617 -0.34641 8.3084e-07)
(9.6915 -0.24122 8.7604e-07)
(9.6201 -0.17986 9.116e-07)
(9.5524 -0.13641 9.3928e-07)
(9.5291 -0.10534 9.5401e-07)
(9.5126 -0.085506 9.6474e-07)
(9.5292 -0.074799 9.8003e-07)
(9.5524 -0.069772 9.9701e-07)
(9.5663 -0.065957 9.9744e-07)
(9.5733 -0.064296 9.9164e-07)
(9.5883 -0.065205 1.001e-06)
(11.3586 0.22107 1.7078e-05)
(11.0728 0.22295 1.6032e-05)
(10.9063 0.17202 1.5543e-05)
(10.8345 0.12163 1.5317e-05)
(10.7922 0.086127 1.5075e-05)
(10.7668 0.060909 1.4845e-05)
(10.7449 0.042603 1.4593e-05)
(10.7329 0.029597 1.453e-05)
(10.7249 0.02239 1.4455e-05)
(10.7178 0.016649 1.4193e-05)
(10.7088 0.015199 1.4068e-05)
(10.706 0.015176 1.4437e-05)
(9.8119 -0.22433 2.1482e-07)
(9.9761 -0.3996 4.4581e-07)
(10.0319 -0.5091 4.4538e-07)
(9.9701 -0.2942 2.5479e-07)
(9.9815 -0.19771 2.0704e-07)
(9.9895 -0.13148 2.0825e-07)
(9.9946 -0.085926 2.0973e-07)
(9.9975 -0.055181 2.1139e-07)
(9.9805 -0.046672 2.2105e-07)
(9.9698 -0.028584 2.274e-07)
(9.9678 -0.0068638 2.2877e-07)
(9.975 0.012712 2.2448e-07)
(9.9879 0.024587 2.1722e-07)
(9.9801 0.045331 2.2703e-07)
(9.971 0.081176 3.3649e-07)
(9.9648 0.14215 7.4974e-07)
(9.9725 0.24328 1.6044e-06)
(10.0248 0.41478 3.2106e-06)
(10.2022 0.65107 4.1278e-06)
(10.6069 0.96111 3.7728e-06)
(11.1203 0.72605 3.5978e-06)
(11.5151 0.43964 2.6529e-06)
(11.5859 0.1226 2.404e-06)
(11.2568 -0.10012 2.1793e-06)
(11.0132 -0.073237 2.1014e-06)
(10.9016 -0.024389 2.0598e-06)
(10.8464 -0.0045131 2.0181e-06)
(10.8101 0.0048874 1.9889e-06)
(10.7868 0.014843 1.9717e-06)
(10.7718 0.020721 1.9588e-06)
(10.7723 0.02381 2.104e-06)
(10.7785 0.02477 2.2999e-06)
(10.7815 0.024703 2.299e-06)
(10.7765 0.02089 2.2913e-06)
(10.7764 0.017472 2.5085e-06)
(10.7759 0.016065 2.6965e-06)
(9.6009 -0.065382 1.006e-06)
(6.0925 0.029687 1.1477e-06)
(6.5383 -0.00082791 2.1221e-06)
(9.1426 0.063187 5.6436e-06)
(10.6992 0.015079 1.4285e-05)
(9.5917 0.11016 2.32e-07)
(9.6355 -0.11279 2.1939e-07)
(9.7147 -0.27401 2.1456e-07)
(9.7673 -0.42953 2.8831e-07)
(9.8509 -0.60307 3.1873e-07)
(10.0556 -0.64356 3.9853e-07)
(10.2974 -0.61141 4.4276e-06)
(10.1312 -0.2615 3.011e-06)
(10.0787 -0.18262 7.1068e-07)
(10.048 -0.12274 1.9921e-07)
(10.0286 -0.07999 2.002e-07)
(10.0161 -0.051154 2.0142e-07)
(10.0081 -0.031734 2.0281e-07)
(9.9991 -0.034407 2.1318e-07)
(9.9906 -0.029767 2.2303e-07)
(9.9852 -0.019429 2.2954e-07)
(9.9841 -0.0064852 2.3103e-07)
(9.9875 0.0053363 2.2674e-07)
(9.9937 0.012894 2.1924e-07)
(10.0006 0.014767 2.1144e-07)
(10.002 0.026837 2.0988e-07)
(10.0061 0.047026 9.9743e-07)
(10.0161 0.079816 4.0524e-06)
(10.0384 0.13143 8.6755e-06)
(10.0867 0.21126 1.5383e-05)
(10.1832 0.32701 2.1955e-05)
(10.3711 0.47036 2.4116e-05)
(10.676 0.59097 2.2671e-05)
(11.0535 0.53402 2.1019e-05)
(11.3574 0.36046 1.8196e-05)
(11.4753 0.13953 1.6168e-05)
(11.4198 -0.021534 1.4901e-05)
(11.3145 -0.062723 1.4141e-05)
(11.2386 -0.057554 1.352e-05)
(11.2053 -0.05207 1.3125e-05)
(11.1871 -0.050213 1.2777e-05)
(11.1753 -0.04728 1.2569e-05)
(11.1663 -0.043757 1.5048e-05)
(11.1615 -0.040207 1.5465e-05)
(11.1604 -0.037565 1.8291e-05)
(11.1586 -0.037642 1.9834e-05)
(11.1539 -0.039671 1.9838e-05)
(11.1492 -0.040111 2.0557e-05)
(11.1458 -0.039421 2.6704e-05)
(11.1416 -0.038872 2.8327e-05)
(10.7765 0.015964 2.943e-06)
(9.6142 -0.062633 1.0087e-06)
(6.129 0.025123 1.0797e-06)
(6.5595 -0.0030196 2.0251e-06)
(9.1409 0.061476 5.4835e-06)
(10.6914 0.015869 1.4312e-05)
(11.1124 0.030489 6.0643e-05)
(11.1217 0.031013 5.9827e-05)
(11.1297 0.031835 5.5531e-05)
(11.1384 0.033453 5.5341e-05)
(11.1476 0.034479 5.5203e-05)
(11.1571 0.038561 5.5165e-05)
(11.1678 0.044763 5.5087e-05)
(11.1823 0.053598 5.4953e-05)
(11.2031 0.063855 5.5786e-05)
(11.2312 0.076247 5.6708e-05)
(11.2743 0.090623 5.7863e-05)
(11.3451 0.10333 5.9603e-05)
(11.4444 0.098145 6.2022e-05)
(11.9322 1.4922 4.5456e-07)
(11.3745 -0.18452 0.00019529)
(11.4591 -0.084912 0.00021345)
(11.4698 -0.0093597 0.00023039)
(11.4289 0.034935 0.00024708)
(11.3734 0.050717 0.00026097)
(11.3253 0.04874 0.00027511)
(11.2901 0.040946 0.00029069)
(11.2647 0.032722 0.00030737)
(11.2451 0.025266 0.00032492)
(11.2298 0.01863 0.0003436)
(11.2175 0.013549 0.00036205)
(11.2071 0.010173 0.00038028)
(11.1978 0.0078732 0.00039829)
(11.1892 0.0056354 0.00041607)
(11.1811 0.0040987 0.00043357)
(11.1737 0.0022893 0.00045096)
(10.0032 -0.018294 2.0435e-07)
(9.9997 -0.019995 2.1515e-07)
(9.9964 -0.017564 2.2521e-07)
(9.9943 -0.011896 2.3181e-07)
(9.9938 -0.004695 2.3331e-07)
(9.9951 0.0019372 2.2897e-07)
(9.9975 0.0063449 2.2132e-07)
(10.0001 0.0076757 2.1312e-07)
(10.0024 0.0060385 4.3277e-05)
(10.0063 0.011421 6.3723e-05)
(10.0137 0.020298 8.4448e-05)
(10.027 0.034682 0.00010513)
(10.0503 0.05697 0.00012588)
(10.0908 0.0904 0.00014725)
(10.1594 0.13906 0.00016952)
(10.2732 0.20332 0.00019311)
(10.4512 0.27275 0.00021818)
(10.7035 0.33164 0.00022947)
(10.9824 0.30235 0.0002523)
(11.2244 0.2155 0.00025927)
(11.3598 0.10021 0.00026418)
(11.3865 0.012019 0.00027185)
(11.3541 -0.022943 0.00028163)
(11.3151 -0.024348 0.00029381)
(11.2908 -0.018498 0.0003062)
(11.2774 -0.01383 0.00032042)
(11.2683 -0.0088645 0.00033907)
(11.2602 -0.0037625 0.00035771)
(11.2535 0.0010789 0.00037626)
(11.2484 0.0045475 0.00039459)
(11.244 0.0061205 0.00041281)
(11.2386 0.0064921 0.0004279)
(11.2331 0.0077377 0.00044577)
(11.2274 0.0090021 0.00046337)
(11.222 0.010197 0.00048091)
(11.2159 0.01115 0.00052057)
(11.1371 -0.03802 5.3512e-05)
(10.7738 0.017316 2.4751e-05)
(9.6204 -0.057277 2.2753e-05)
(6.1543 0.025231 2.2918e-05)
(6.5852 -0.0045473 2.3846e-05)
(9.1565 0.058603 2.7312e-05)
(10.6856 0.014981 3.6091e-05)
(11.0952 0.032782 8.5344e-05)
(11.166 0.0003371 0.00048972)
(9.4016 0.11304 2.307e-07)
(9.4213 -0.14399 2.1827e-07)
(9.484 -0.34521 2.1478e-07)
(9.5741 -0.55913 2.5918e-07)
(9.7197 -0.79796 2.8813e-07)
(10.0138 -0.87189 3.6053e-07)
(10.2927 -0.84945 2.5782e-06)
(10.4862 -0.5751 2.9658e-05)
(10.528 -0.76699 1.6284e-05)
(10.6767 -0.64322 2.9724e-05)
(10.7437 -0.41566 8.6052e-05)
(10.7769 -0.25193 0.00025205)
(10.2316 -0.17448 0.00016756)
(10.1469 -0.122 0.00014622)
(10.0913 -0.083391 0.00012547)
(10.0546 -0.054946 0.00010564)
(10.0306 -0.035322 8.532e-05)
(10.0153 -0.021989 6.4591e-05)
(10.0061 -0.012784 4.3476e-05)
(11.0388 -0.24939 0.00022985)
(6.8435 1.8082 2.8851e-06)
(2.7637 1.2429 1.3529e-06)
(5.1795 1.9637 2.1362e-06)
(8.7646 1.2069 3.2938e-06)
(11.2068 0.56452 5.4347e-06)
(10.9636 -0.47162 6.7862e-05)
(11.2487 -0.29606 0.00015848)
(10.6509 2.9507 4.0272e-07)
(11.4592 -0.4013 6.9999e-05)
(8.209 1.2708 2.5106e-06)
(10.9437 0.64034 3.9534e-06)
(11.7189 -0.57378 2.0086e-05)
(11.3945 -0.63124 3.2318e-05)
(11.172 -0.53006 5.0203e-05)
(10.8629 -0.71721 2.4618e-05)
(10.6994 -0.94463 1.1177e-05)
(10.3939 -1.1402 1.6621e-06)
(10.0002 -1.2119 3.273e-07)
(9.576 -1.1098 2.7105e-07)
(9.3091 -0.80756 2.452e-07)
(9.1584 -0.46791 2.1588e-07)
(9.0812 -0.13932 2.2257e-07)
(9.1209 0.25032 2.6798e-07)
(9.1675 0.68559 3.9978e-07)
(8.8711 3.313 3.5516e-07)
(8.3644 2.2717 3.4035e-07)
(8.9863 1.1856 3.7797e-07)
(6.767 0.76924 1.3476e-06)
(10.2813 0.81498 1.6928e-06)
(11.0795 -0.82481 1.8309e-05)
(11.663 0.3797 2.5911e-06)
(12.0944 0.8864 1.0624e-06)
(11.3618 -0.92774 1.278e-05)
(11.6871 -0.99287 8.3124e-06)
(10.9455 -1.1426 7.6037e-06)
(11.3069 -1.3707 4.7419e-06)
(11.698 -1.5723 2.991e-06)
(10.631 -1.4889 1.1087e-06)
(11.0708 -1.9314 7.3099e-07)
(8.7799 0.45748 2.7771e-07)
(10.0769 -1.6988 3.0385e-07)
(10.38 -2.36 2.8565e-07)
(8.5819 -0.071074 2.3106e-07)
(8.6183 -0.61421 2.1991e-07)
(8.2344 0.90556 2.7638e-07)
(9.3871 -1.626 2.5986e-07)
(8.8778 -1.212 2.3748e-07)
(9.2407 -2.4194 2.5213e-07)
(7.7458 0.098239 2.3105e-07)
(7.8472 -0.87139 2.2251e-07)
(8.268 -1.85 2.3368e-07)
(8.7586 -3.9604 2.4692e-07)
(6.1555 0.47817 2.3178e-07)
(6.1897 -1.5016 2.2545e-07)
(6.7833 -3.1506 2.3261e-07)
(10.0036 0.0023229 4.3934e-05)
(10.0095 0.0042795 6.4971e-05)
(10.0202 0.0075155 8.5875e-05)
(10.0386 0.012794 0.00010648)
(10.0693 0.020809 0.00012671)
(10.1191 0.032412 0.00014752)
(10.1983 0.048529 0.00016973)
(10.3181 0.068437 0.00019345)
(10.4875 0.088218 0.00021914)
(10.7084 0.10422 0.00024525)
(10.9486 0.09876 0.00027162)
(11.1598 0.075782 0.00029672)
(11.2957 0.043034 0.00031886)
(11.3475 0.015641 0.00033886)
(11.3425 0.001951 0.00035771)
(11.3182 -0.0013595 0.00037524)
(11.2975 -0.0015468 0.0003928)
(11.2844 -0.0022172 0.00041083)
(11.2749 -0.0033008 0.00042871)
(11.2665 -0.0043679 0.00044639)
(11.2594 -0.0055414 0.00046392)
(11.2535 -0.0070141 0.00048126)
(11.2487 -0.0088109 0.00049843)
(11.2439 -0.010703 0.00051533)
(11.2388 -0.012398 0.00053192)
(11.2336 -0.013859 0.00054829)
(11.2285 -0.015225 0.00056433)
(11.2229 -0.016381 0.0006017)
(11.2135 -0.017355 0.00059573)
(11.2046 0.012107 0.00051587)
(11.1309 -0.036827 3.2492e-05)
(10.7691 0.020227 2.8881e-06)
(9.631 -0.05041 7.9083e-07)
(6.1974 0.02783 9.1667e-07)
(6.6279 -0.0073444 1.8103e-06)
(9.1666 0.052166 5.2605e-06)
(10.6739 0.011524 1.4191e-05)
(11.0787 0.031408 6.377e-05)
(11.1483 0.0006955 0.00048504)
(11.1546 0.010427 0.00059386)
(11.1689 0.0089313 0.00059977)
(11.1764 0.0080523 0.00056231)
(11.1832 0.0077375 0.00054628)
(11.1905 0.0075191 0.00052999)
(11.1985 0.0073851 0.00051348)
(11.2076 0.0073462 0.0004967)
(11.2181 0.0075735 0.00047967)
(11.231 0.0082751 0.00046242)
(11.2468 0.0094842 0.00044494)
(11.2667 0.011162 0.00042731)
(11.292 0.01319 0.00041032)
(11.3246 0.014465 0.00039471)
(11.3636 0.013054 0.00037824)
(11.4 0.004773 0.00036164)
(11.4142 -0.013918 0.00034454)
(11.3789 -0.040998 0.00032575)
(11.2723 -0.069203 0.00030124)
(11.0865 -0.11521 0.00027595)
(10.827 -0.061798 0.00024671)
(10.5998 -0.06296 0.00020459)
(10.4228 -0.062625 0.00018025)
(10.285 -0.053633 0.0001624)
(10.1846 -0.040928 0.00014421)
(10.1154 -0.029246 0.00012564)
(10.0689 -0.019877 0.00010638)
(10.0386 -0.012942 8.6329e-05)
(10.0193 -0.0080806 6.5686e-05)
(10.0076 -0.0046456 4.4539e-05)
(10.0017 -0.0021268 6.4023e-07)
(10.0014 -0.0058984 2.3455e-07)
(10.0007 -0.0084732 -2.1727e-05)
(9.9999 -0.0092748 -2.1732e-05)
(9.9992 -0.0082232 -2.1726e-05)
(9.9987 -0.0057017 -2.1722e-05)
(9.9986 -0.0024731 -2.1721e-05)
(9.9989 0.00055227 -2.166e-05)
(9.9994 0.0026088 -2.1606e-05)
(10 0.0032848 -2.1592e-05)
(10.0005 0.0026221 4.0096e-07)
(10.0008 0.00099226 7.0722e-07)
(6.3399 -4.7371 2.3528e-07)
(9.213 -6.6133 2.503e-07)
(12.3873 -5.9751 2.707e-07)
(13.6007 -4.91 2.8413e-07)
(13.3417 -2.5098 3.9034e-07)
(10.8237 -1.9466 4.1076e-07)
(3.5067 -2.6093 7.1633e-07)
(-2.3906 -1.5538 1.2698e-06)
(-2.6571 -0.53057 1.1307e-06)
(-5.0624 1.427 1.1261e-06)
(9.7108 2.8638 4.0319e-07)
(12.721 3.1645 3.1973e-07)
(12.8224 5.3244 2.9965e-07)
(11.2282 6.3322 2.8836e-07)
(5.1125 1.0678 2.3364e-07)
(5.0989 -2.0032 2.2926e-07)
(5.9462 0.29061 2.8239e-06)
(12.3359 1.0447 5.1346e-07)
)
;

boundaryField
{
    bottom
    {
        type             symmetry;
    }
    inlet
    {
        type             fixedValue;
        value            uniform (10 0 0);
    }
    object
    {
        type             noSlip;
    }
    outlet
    {
        type             zeroGradient;
    }
    side1
    {
        type             empty;
    }
    side2
    {
        type             empty;
    }
    top
    {
        type             symmetry;
    }
}

// ************************************************************************* //
