/*--------------------------------*- C++ -*----------------------------------*\\
| =========                 |                                                 |
| \\      /  F ield         | OpenFOAM: The Open Source CFD Toolbox           |
|  \\    /   O peration     | Version:  v1706                                 |
|   \\  /    A nd           | Web:      www.OpenFOAM.com                      |
|    \\/     M anipulation  |                                                 |
\\*---------------------------------------------------------------------------*/
FoamFile
{
    version     2.0;
    format      ascii;
    class       surfaceScalarField;
    location    "0.1";
    object      mdot_f;
}
// * * * * * * * * * * * * * * * * * * * * * * * * * * * * * * * * * * * * * //

dimensions      [1 0 -1 0 0 0 0]


internalField   nonuniform List<scalar>
906
(
-0.024345
0.017537
0.0037551
0.0030534
-0.0042488
-0.018039
-0.0020464
-0.03098
0.03441
0.019534
-0.022965
0.035816
-0.03243
-0.034362
0.0055355
0.064756
-0.063871
-0.0064206
0.0026492
-0.065094
0.067979
-0.039523
0.037864
-0.0018208
0.0034799
-0.022663
0.015909
-0.032767
-0.06986
0.043248
-0.008891
0.035503
-0.002152
0.0019185
-0.069626
0.05528
-0.010915
0.013437
-0.057802
0.015812
-0.0056607
0.045132
-0.024048
-0.017754
0.0080838
0.033719
-0.029463
0.035408
-0.029994
0.04658
-0.011289
0.075319
-0.063822
0.0043167
0.0004938
0.071422
0.0034043
-0.0049064
-0.069828
0.0219
-0.014233
-0.0076672
-0.0027915
0.024691
0.015042
-0.021691
-0.0075846
0.03655
-0.019033
0.01673
-0.034247
0.039241
0.028146
-0.030836
0.037538
-0.021724
-0.028786
0.012972
0.041437
0.025413
-0.029312
0.032085
-0.0096795
-0.020651
0.019788
0.044111
-0.067504
0.052881
-0.0060275
-0.067448
-0.0022076
-0.0034753
0.0046913
0.018916
-0.020132
0.0058726
0.00072869
-0.010063
0.048973
-0.03124
0.023806
-0.041539
0.051146
0.011269
-0.049795
0.01196
0.011479
-0.041391
0.064719
0.012488
-0.026224
-0.041442
0.026276
-0.041431
-0.017223
0.0085491
0.044225
-0.0095912
-0.043183
0.034966
-0.0035796
-0.022834
0.0021706
0.037499
0.057177
-0.010775
0.0359
0.0097184
-0.019904
-0.0071526
0.017338
-0.017655
0.025232
0.0021417
-0.023327
-0.014234
-0.0033699
0.058807
0.0092826
0.023388
0.00038773
-0.030929
0.021185
0.01954
0.047176
0.0068343
-0.0074312
-0.041269
0.046941
0.015512
0.0062907
0.0025826
0.0029143
0.0028426
-0.041693
-0.024634
0.00033634
-0.010065
-0.049078
0.027288
0.035154
0.0096163
0.0089718
0.040481
0.0017583
-0.013777
0.042657
0.003628
-0.0021256
-0.00076108
0.0023582
0.043053
0.0030949
0.0082302
-0.038684
0.011534
0.043063
0.0070482
0.021773
0.005
0.044199
-0.0026458
-0.046554
0.040781
0.0020901
0.0011122
0.044907
-0.0018185
0.040528
0.001365
0.0010449
0.045191
-0.0013287
0.040783
0.00078905
0.00060757
0.045817
-0.0012339
0.041722
-0.0003332
0.00062608
0.046488
-0.0012985
0.042843
-0.00049633
0.00013597
0.047662
-0.0013106
0.044186
-0.0012083
0.00010579
0.048418
-0.0008633
0.04558
-0.0012894
0.00011805
0.049701
-0.0014012
0.047147
-0.0014498
4.6161e-05
-0.0011299
0.050784
0.048245
-0.0010531
-0.069338
0.006346
0.065641
0.0053378
-0.066247
-0.0041863
-0.067609
0.0036081
0.0033813
-0.0036936
-0.065935
0.0025996
-0.066828
-0.064425
-0.0036341
-0.065271
-0.0028486
0.062842
0.0013846
0.06758
0.0067993
0.062718
0.0022169
0.061212
-0.00031186
0.060399
-0.00051679
0.060058
-0.00089374
0.059683
-0.00092509
0.059865
-0.001494
0.060477
-0.0014768
0.060677
-0.0016018
0.06052
-0.00097374
0.070259
-0.00031331
-0.0013522
0.04991
-0.0011525
0.051621
-0.0018716
0.061238
-0.06802
0.068546
0.0030818
-0.067377
0.0019564
-0.0019998
0.0013519
-0.066729
-0.0023652
-0.066463
-0.0022588
-0.066042
-0.06586
-0.0016703
0.070253
0.010328
0.06473
0.0037061
0.065068
0.0017522
0.064581
0.0018514
0.064289
0.0010797
0.063816
0.00013892
0.063638
-0.00031886
0.063913
-0.0014846
0.064323
-0.0016998
0.063963
-0.0010906
0.063715
-0.00080638
-0.0018059
0.064168
0.072139
0.074013
0.0049254
0.073554
0.0026769
0.071757
0.0014847
0.070891
0.00034952
0.070179
-0.00018225
0.069697
-0.00044402
0.069353
-0.0011496
0.069031
-0.0011557
0.068178
-0.00074951
0.068283
-0.0010786
0.068274
-0.001863
0.005565
0.069326
0.056961
-0.07692
0.021878
0.0089127
0.039157
-0.069944
-0.0014119
-0.067928
0.0010655
-0.067373
0.0014012
-0.066781
0.00076039
-0.001009
0.00060589
-0.066378
-0.00137
-0.066368
-0.0015513
-0.066282
-0.0010599
-0.066534
-0.00081573
-0.066105
0.065723
-0.066383
-0.00015579
0.065023
-0.00097137
0.064087
-0.0019132
0.063781
-0.0033292
0.061299
-0.0039405
0.05526
-0.005251
0.050366
-0.0025404
0.052839
0.0038166
0.050949
0.0048014
0.066855
0.010368
0.067349
0.0087916
0.071704
0.0059733
0.071903
0.0035059
0.070878
0.0027775
0.071399
0.001329
0.071459
0.0010192
0.071578
1.9582e-05
0.071469
-0.00021061
0.07147
-0.001486
0.071375
-0.0016058
0.070906
-0.00062199
0.070677
-0.00057775
0.070523
-0.0016528
0.0016511
-0.0013226
0.070195
0.0014994
0.064319
0.00034188
0.051066
-0.0011339
0.053096
-0.0013123
0.061416
0.067895
-0.00093403
-0.004274
0.042257
0.013321
0.048046
0.04557
0.037077
0.035976
0.031472
0.022932
0.021957
0.027174
0.034914
0.02793
0.034748
-0.070003
-0.0010348
-0.068647
-0.00029063
-0.067695
0.00044947
-0.067248
0.00031326
-0.066907
0.00026429
-0.00083864
-0.066225
0.00015676
-0.00055877
-0.066658
-0.00030526
-0.066622
1.1451e-05
-0.066599
7.3029e-05
-0.066596
0.00023986
-0.066272
0.00043625
-0.066581
0.066109
-0.066591
0.00091782
0.065767
0.00018535
0.065267
-0.00047255
0.064971
-0.0016179
0.063797
-0.002157
0.062633
-0.0027773
0.059793
-0.0024127
0.057918
-0.00066726
0.057298
0.0044343
0.061268
0.00082992
0.066639
0.0049955
0.070296
0.0051339
0.072314
0.0039543
0.072852
0.0029671
0.073734
0.0018946
0.073522
0.00154
0.073633
0.00090697
0.073958
-0.0003057
0.074727
-0.00097966
0.073783
-0.00054253
0.073218
-0.001041
0.073395
-0.00079959
0.072788
2.9237e-05
0.071783
-0.00064851
0.071987
-0.0015278
0.0014124
-0.00076428
0.071339
0.0015594
0.070046
0.0013227
0.064555
-1.4514e-05
0.052403
-0.00097745
0.054058
-0.0010612
0.061499
-0.001179
0.068012
-0.070383
-0.00065846
0.069862
-0.069925
-0.0013926
-0.071132
-0.00065655
-0.071537
-0.00067386
-0.071605
-0.000682
-0.072071
-0.00068943
-0.072519
-0.00070191
-0.07289
-7.3901e-05
-0.073329
0.00025685
-0.073821
0.00084146
-0.074156
0.0018192
-0.074034
0.0025552
0.0023145
-0.036979
-0.0031279
0.066831
-0.065862
-0.005875
0.069729
0.0014195
0.071395
0.0017401
0.072037
0.0016725
0.073222
0.0013709
0.074007
0.0010343
0.073843
0.0010063
0.074012
8.7771e-05
0.074271
-0.00033336
0.073893
-0.00032386
0.073522
-0.00031917
0.073158
-0.00031742
0.072799
-0.00031572
0.072453
-0.00031036
0.071359
-0.00029853
0.070975
-0.00027536
-0.00011947
0.00057164
-0.066677
-0.00011368
-0.066664
-8.3225e-05
-0.066653
-3.7496e-05
-0.066646
1.0267e-05
-0.066644
0.0003871
-0.066649
0.00046408
-0.066658
0.00054071
-0.066668
0.066535
0.00068165
-0.066676
0.06739
6.1656e-05
0.067468
0.00010664
0.066817
0.00017823
0.065848
-0.00065084
0.064773
-0.0010827
0.062722
-0.00072795
0.061003
-0.00069562
0.06051
-0.00017579
0.063378
0.0015638
0.063499
0.00070713
0.066316
0.0021771
0.069243
0.0022053
0.071427
0.0017691
0.073208
0.0011847
0.073838
0.0012638
0.074727
0.00065015
0.07587
-0.00023687
0.075809
-0.00024524
0.075083
-0.00025449
0.074806
-0.00026524
0.074042
-0.00027782
0.073535
-0.00029248
0.07387
-0.00030619
0.073534
-0.00031324
0.07232
-0.00031378
0.071866
-0.00031143
0.0010048
-0.00078942
0.071651
0.00091266
0.07143
0.0011274
0.069831
0.0010446
0.064637
1.8268e-05
0.053428
-0.00086222
0.054938
-0.0015884
0.062224
-0.0013342
0.067757
-0.001009
0.069536
0.070223
-0.00025736
-0.0013847
0.025887
0.014137
0.032524
0.019748
0.031465
0.022551
0.028669
0.018398
0.02611
0.023123
0.03019
0.021922
0.02913
0.022692
0.031843
0.0088308
0.035784
-0.0022471
0.042921
-0.0032827
0.045147
0.050679
-0.0010807
-0.067988
-0.00049501
-0.067925
-0.00035297
-0.067419
-5.6631e-05
-0.067118
1.2324e-05
-0.066762
-9.1627e-05
-0.066811
0.00020567
0.00044767
-0.066688
-0.017843
0.052976
0.015545
-0.0085458
-0.015154
0.0058556
-0.0071608
0.0044001
-0.012727
-0.0099014
-0.02808
-0.04181
0.045831
-0.018527
0.021462
-0.034348
-0.026526
-0.000837
-0.0061329
-0.042232
-0.017947
-0.022859
-0.035947
-0.027483
-0.028445
-0.036498
-0.033216
-0.025015
-0.015953
0.040348
-0.018982
0.038813
-0.019859
0.030007
-0.018423
0.028755
-0.017482
0.025169
-0.013125
0.024312
-0.0080381
0.026378
-0.0034687
0.027954
0.030501
0.033052
0.0024234
-0.027177
-0.02637
-0.0070944
-0.019487
-0.010524
-0.031952
-0.023481
0.038845
-0.023512
-0.04534
0.0034764
0.032196
-0.026566
-0.027083
0.036492
-0.02119
0.035914
-0.025987
0.029524
-0.020707
-0.025773
0.0050562
0.027868
0.026197
-0.018149
-0.0213
0.0088697
0.02414
0.01186
0.023387
-0.00091784
-0.015432
0.022452
0.020739
-0.016261
0.017413
0.0045113
0.01871
0.010924
0.016974
0.015402
-0.020395
0.0090228
0.0027095
0.0084152
0.012808
0.0068747
0.0078154
0.067362
-0.066681
0.067423
0.067529
0.067707
0.067056
0.065972
0.065243
0.064547
0.06437
0.065932
0.066638
0.068815
0.071019
0.072788
0.073972
0.075235
0.075885
0.075648
0.075403
0.075148
0.074883
0.074605
0.074312
0.074006
0.073692
0.073378
0.073067
0.072277
0.0005098
0.00059773
0.00082606
0.00094879
0.0007864
5.1743e-05
-0.00060843
-0.00084801
-0.00076409
-0.00052274
-0.00094355
-0.072298
-0.072555
-0.072831
-0.07313
-0.07344
-0.073756
-0.074074
-0.074393
-0.074717
-0.07505
-0.074963
-0.073956
-0.072922
-0.071551
-0.069879
-0.068138
-0.066718
-0.072593
-0.057047
-0.058128
-0.064155
-0.066363
-0.066858
-0.067211
-0.067267
-0.067255
-0.067346
-0.067141
-0.066693
-2.6578e-05
-4.7457e-05
-5.7947e-05
-5.5787e-05
-4.2097e-05
-2.1135e-05
1.0491e-06
1.8325e-05
2.6746e-05
2.5049e-05
1.4795e-05
0.015437
-0.0076219
0.02446
0.037432
0.027753
0.031229
0.0077499
-0.0027728
0.0016376
0.0040175
0.0019008
-0.021061
-0.020725
-0.023854
0.00074721
)
;

boundaryField
{
    bottom
    {
        type             calculated;
        value            uniform 0;
    }
    inlet
    {
        type             calculated;
        value            nonuniform List<scalar>
12
(
-0.066667
-0.066667
-0.066667
-0.066667
-0.066667
-0.066667
-0.066667
-0.066667
-0.066667
-0.066667
-0.066667
-0.066667
)
;
    }
    object
    {
        type             calculated;
        value            uniform 0;
    }
    outlet
    {
        type             calculated;
        value            nonuniform List<scalar>
12
(
0.071693
0.071296
0.070597
0.069274
0.067672
0.062522
0.05574
0.054304
0.064829
0.069672
0.07114
0.071491
)
;
    }
    side1
    {
        type             calculated;
        value            uniform 0;
    }
    side2
    {
        type             calculated;
        value            uniform 0;
    }
    top
    {
        type             calculated;
        value            uniform 0;
    }
}

// ************************************************************************* //
