/*--------------------------------*- C++ -*----------------------------------*\\
| =========                 |                                                 |
| \\      /  F ield         | OpenFOAM: The Open Source CFD Toolbox           |
|  \\    /   O peration     | Version:  v1706                                 |
|   \\  /    A nd           | Web:      www.OpenFOAM.com                      |
|    \\/     M anipulation  |                                                 |
\\*---------------------------------------------------------------------------*/
FoamFile
{
    version     2.0;
    format      ascii;
    class       volScalarField;
    location    "0.1";
    object      p;
}
// * * * * * * * * * * * * * * * * * * * * * * * * * * * * * * * * * * * * * //

dimensions      [0 2 -2 0 0 0 0]


internalField   nonuniform List<scalar>
479
(
-15.8624
-19.236
-18.2495
-11.3312
13.2119
13.9335
-0.31116
-3.2795
9.0745
10.0821
-8.1766
-8.1452
17.6081
15.4326
13.7926
-5.6311
-5.6522
-4.7054
47.8611
25.2999
32.0813
-13.4124
-10.6226
-2.834
-10.4415
-21.279
7.3126
7.1251
8.8018
-12.1432
-14.9987
-10.3003
-11.6958
-8.9326
-11.1432
-11.0069
-7.7153
-12.4352
-12.8124
-13.5602
-10.2733
-10.0291
-11.3451
12.1408
12.92
14.7154
-9.6551
12.4831
7.8375
12.8407
4.0181
10.0931
-1.8179
-9.6264
-26.9172
-19.3701
3.2907
-4.1519
15.7876
15.4418
-14.0294
-33.3862
-27.2609
-12.9689
-18.899
-8.1351
-2.3784
-6.4045
-8.8986
-0.39427
0.23448
-0.39173
-0.014007
-0.52897
-0.43592
-0.76423
-0.7635
-0.853
-0.91897
-0.77228
-0.86788
-0.6267
-0.71678
-0.43022
-0.51484
-0.25965
-0.34846
13.7956
13.1369
13.0724
12.6259
12.5797
12.7376
12.4097
-6.7742
-4.378
-2.1037
-1.3687
-1.2345
-1.1823
-1.0972
-0.93976
-0.76159
-0.54202
-0.38131
-8.6697
-0.17646
-0.095281
-0.20482
12.6555
12.3021
12.0796
12.2642
12.3021
12.1851
-8.0559
-2.4146
-0.89419
-0.79166
-0.91865
-0.9784
-1.0213
-0.90914
-0.75232
-0.58956
-0.46009
-0.27546
-6.7829
-5.3211
-3.6566
-2.4888
-1.8828
-1.5405
-1.3006
-1.0663
-0.85684
-0.66014
-0.49396
-0.30472
13.2127
12.0371
11.3831
11.9926
11.9105
11.8376
11.7864
11.7545
11.9429
12.0673
12.0997
12.0387
11.9148
11.9708
12.0405
12.1047
12.0971
11.7844
10.4043
6.9637
0.87345
-4.4458
-7.3718
-6.6454
-3.7919
-2.0646
-1.4541
-1.2889
-1.2131
-1.1593
-1.0301
-0.89116
-0.76128
-0.61724
-0.43038
-0.29167
-0.12155
-0.013987
0.050767
-0.059406
-0.17173
15.1077
14.8674
14.2036
13.5588
12.8713
10.5957
8.5586
10.7434
11.1111
11.331
11.4668
11.55
11.6012
11.736
11.8619
11.9481
11.9767
11.9466
11.8748
11.7875
11.7705
11.7333
11.6522
11.4788
11.1112
10.3437
8.7743
5.9593
1.868
-2.0733
-4.4052
-4.5267
-3.2895
-2.1128
-1.4903
-1.2408
-1.1317
-1.0657
-0.97599
-0.87465
-0.75937
-0.62366
-0.47366
-0.35182
-0.27179
-0.19298
-0.0026051
0.13692
0.18018
0.054047
-0.058111
-0.066843
-0.24151
-0.39212
-0.56756
-0.74711
-0.9326
-1.1321
-1.3612
-1.6314
-2.0255
-2.6547
-3.6145
-4.77
-14.2811
-2.4027
-3.8609
-4.4238
-4.1228
-3.4449
-2.7628
-2.2246
-1.8314
-1.5346
-1.2873
-1.0695
-0.86775
-0.6786
-0.50597
-0.35913
-0.24896
11.6303
11.7268
11.8178
11.8826
11.9087
11.8947
11.8511
11.7945
11.7442
11.7107
11.6476
11.5359
11.3421
11.0075
10.4353
9.4647
7.8844
5.5314
2.4761
-0.55918
-2.6174
-3.2878
-2.9316
-2.2653
-1.7543
-1.4642
-1.3048
-1.2006
-1.1018
-0.99113
-0.86615
-0.7311
-0.59402
-0.47575
-0.39514
-0.35723
-0.23665
-0.13331
0.095972
0.28942
0.31835
0.16915
0.010862
-0.046845
-0.21932
16.8866
16.6697
16.2661
15.3591
14.0429
11.1857
8.4584
6.9794
6.3912
5.262
5.1323
4.6528
9.857
10.518
10.9407
11.2126
11.3846
11.4906
11.5505
1.7352
-15.0062
-25.0943
-18.2035
-14.0494
-12.6075
2.554
-1.0383
0.89705
-3.1382
-15.2805
-8.2115
-5.4963
-2.6119
0.032795
3.1235
4.5008
7.5298
11.473
15.3542
17.7649
19.1015
19.6875
19.6081
18.7982
19.4258
20.4587
20.2319
-24.9831
-12.7505
0.56838
-9.5486
-24.4832
-2.421
-6.243
1.7013
-2.3261
-8.0566
5.0089
-0.18376
22.2821
10.6195
7.5119
23.7921
23.193
25.6737
16.846
21.0779
18.1666
29.1718
29.1398
25.9214
16.9766
37.699
38.0001
32.7261
11.7151
11.667
11.5779
11.4255
11.1716
10.7551
10.0856
9.0418
7.4899
5.371
2.7493
0.13875
-1.7982
-2.6768
-2.6625
-2.2282
-1.7788
-1.4631
-1.2687
-1.1421
-1.0374
-0.93
-0.81357
-0.69093
-0.5707
-0.46772
-0.39614
-0.36785
-0.43861
-0.42444
-0.30714
-0.14869
0.20173
0.60247
0.60728
0.30135
-0.017294
-0.20569
-0.3131
-0.34105
-0.26003
-0.29032
-0.38597
-0.52289
-0.6893
-0.87712
-1.0831
-1.3106
-1.5722
-1.8904
-2.2916
-2.7862
-3.3202
-3.7144
-3.6743
-2.8823
-1.1551
1.3651
4.1154
6.4617
8.1568
9.3585
10.1789
10.7212
11.0712
11.2929
11.4292
11.5059
11.5369
11.5748
11.6422
11.7236
11.8009
11.8571
11.882
11.8741
11.8413
11.797
11.7567
11.7332
49.1001
16.7282
-30.9735
-62.5693
-73.3581
-60.7646
-44.4072
-34.6762
-35.339
-40.7809
-50.5005
-57.4564
-56.0064
-16.5891
54.6725
55.3408
-0.2934
-18.8201
)
;

boundaryField
{
    bottom
    {
        type             symmetry;
    }
    inlet
    {
        type             zeroGradient;
    }
    object
    {
        type             zeroGradient;
    }
    outlet
    {
        type             fixedValue;
        value            uniform 0;
    }
    side1
    {
        type             empty;
    }
    side2
    {
        type             empty;
    }
    top
    {
        type             symmetry;
    }
}

// ************************************************************************* //
