/*--------------------------------*- C++ -*----------------------------------*\\
| =========                 |                                                 |
| \\      /  F ield         | OpenFOAM: The Open Source CFD Toolbox           |
|  \\    /   O peration     | Version:  v1706                                 |
|   \\  /    A nd           | Web:      www.OpenFOAM.com                      |
|    \\/     M anipulation  |                                                 |
\\*---------------------------------------------------------------------------*/
FoamFile
{
    version     2.0;
    format      ascii;
    class       volVectorField;
    location    "0.1";
    object      U;
}
// * * * * * * * * * * * * * * * * * * * * * * * * * * * * * * * * * * * * * //

dimensions      [0 1 -1 0 0 0 0]


internalField   nonuniform List<vector>
479
(
(5.2188 -1.759 5.59e-07)
(6.367 -1.4924 6.3968e-07)
(10.447 -0.11392 9.4787e-07)
(12.0634 -0.39122 1.0673e-06)
(9.8406 0.22881 4.9069e-07)
(9.7307 0.11768 3.6499e-07)
(5.685 -0.20179 4.9127e-07)
(5.6211 -0.25269 5.6735e-07)
(10.2819 -0.43615 7.9751e-06)
(10.1998 -0.34261 8.8925e-06)
(11.7119 -0.30761 2.0053e-05)
(11.6714 -0.042073 1.6995e-05)
(9.3667 0.43114 8.078e-07)
(9.5905 0.44067 8.1922e-07)
(9.8177 0.44002 9.9734e-07)
(11.5749 -0.031219 5.8189e-05)
(11.5351 0.073339 5.3791e-05)
(11.558 -0.23738 7.0684e-05)
(6.3826 3.3929 1.0755e-06)
(8.7297 5.8639 1.1945e-06)
(6.8063 2.006 1.0269e-06)
(11.9416 -0.99573 2.5598e-06)
(11.7481 -0.88283 4.615e-06)
(10.8541 -2.9528 1.1674e-06)
(11.5477 -2.4518 1.3589e-06)
(12.1287 -1.2332 1.2594e-06)
(10.4868 -0.41913 7.3999e-05)
(10.5161 -0.24049 0.0002145)
(10.3453 -0.23587 0.00018974)
(5.1144 1.5971 1.4342e-06)
(2.0363 1.5191 1.1984e-06)
(11.6573 -0.085001 5.9379e-06)
(11.7067 0.0051719 7.8342e-06)
(11.745 -0.60356 1.1397e-05)
(3.1322 -1.0158 4.825e-07)
(11.9038 -0.019784 1.1192e-06)
(11.7377 0.62747 1.3925e-06)
(11.8948 1.0532 1.207e-06)
(10.9797 0.53437 4.0229e-06)
(8.7126 1.1697 2.2109e-06)
(7.7278 1.2706 1.678e-06)
(10.692 0.62261 4.668e-06)
(11.5566 0.18041 7.3123e-06)
(9.6392 2.1563 1.2792e-06)
(9.7044 2.5434 1.3045e-06)
(9.3295 1.9874 1.2386e-06)
(11.5811 -0.38349 9.7914e-07)
(9.9139 1.5172 1.2521e-06)
(10.1628 1.9466 1.3911e-06)
(9.9702 0.80522 1.4648e-06)
(10.8255 1.3792 1.5022e-06)
(10.3751 1.053 1.5167e-06)
(11.3929 1.0853 1.5734e-06)
(11.7311 1.5298 1.3618e-06)
(12.4336 -0.75793 1.0859e-06)
(12.4408 1.3698 1.1936e-06)
(10.5352 2.4885 1.3555e-06)
(11.261 2.0434 1.3952e-06)
(9.5996 0.85302 1.1105e-06)
(9.6038 1.2321 1.1894e-06)
(10.632 -0.6287 8.1263e-07)
(8.1802 -0.68706 7.1562e-07)
(2.3689 -0.24722 6.0808e-07)
(9.8426 -0.98457 6.9529e-07)
(-2.9031 -0.72995 3.959e-07)
(3.4781 0.48765 7.8007e-07)
(5.9701 0.39575 9.3318e-07)
(6.5575 1.0153 1.3384e-06)
(8.0133 -0.81206 5.7008e-07)
(6.2251 0.22371 6.2053e-07)
(5.7961 -0.11828 3.0564e-07)
(6.4841 0.20555 4.4471e-07)
(5.9013 -0.091754 2.5555e-07)
(6.6494 0.17364 4.0721e-07)
(6.0062 -0.066048 2.1331e-07)
(6.8162 0.15642 3.7155e-07)
(6.1712 -0.061357 1.7898e-07)
(6.9736 0.15136 3.3874e-07)
(6.3433 -0.063597 1.4979e-07)
(7.1241 0.14918 3.0718e-07)
(6.5485 -0.074225 1.2724e-07)
(7.2562 0.14501 2.6656e-07)
(6.7536 -0.08642 1.0956e-07)
(7.4111 0.14195 2.4357e-07)
(6.9672 -0.09525 9.6662e-08)
(7.5594 0.13584 2.1226e-07)
(7.1571 -0.098621 8.4185e-08)
(9.748 -0.058506 3.5627e-07)
(9.8373 0.048524 3.0218e-07)
(9.8396 -0.048992 3.0699e-07)
(9.9011 0.019866 2.6844e-07)
(9.9026 -0.040296 2.6952e-07)
(9.8915 0.12575 3.2858e-07)
(9.9308 0.068607 2.6918e-07)
(10.0205 0.68475 3.7486e-06)
(9.2403 0.5475 2.9681e-06)
(9.0859 0.44703 2.6581e-06)
(9.0645 0.378 2.4193e-06)
(9.0693 0.32728 2.2005e-06)
(9.0811 0.29562 2.0183e-06)
(9.091 0.27681 1.841e-06)
(9.1128 0.26368 1.7162e-06)
(9.1325 0.2543 1.5876e-06)
(9.1578 0.24462 1.4697e-06)
(9.1752 0.23517 1.3157e-06)
(11.5049 0.13713 1.1932e-05)
(7.358 -0.10225 7.728e-08)
(7.7102 0.12973 1.8669e-07)
(9.2104 0.22599 1.2489e-06)
(9.8841 -0.13769 2.9881e-07)
(9.931 -0.092903 2.6333e-07)
(9.9608 -0.061372 2.4204e-07)
(9.9436 -0.029673 2.4772e-07)
(9.9421 0.0063564 2.4822e-07)
(9.9578 0.036949 2.439e-07)
(10.3059 -0.58566 7.7658e-07)
(9.9563 -0.39462 6.9046e-07)
(9.7955 -0.30424 5.9931e-07)
(9.7191 -0.2509 5.1945e-07)
(9.6653 -0.22198 4.4959e-07)
(9.6431 -0.2139 3.9263e-07)
(9.6294 -0.21953 3.5171e-07)
(9.6321 -0.22845 3.4809e-07)
(9.6401 -0.23754 3.6783e-07)
(9.642 -0.24373 3.7399e-07)
(9.6388 -0.24864 3.7248e-07)
(9.6493 -0.25075 4.189e-07)
(11.3095 0.25303 1.1512e-05)
(11.0135 0.28189 1.01e-05)
(10.8256 0.24832 9.2126e-06)
(10.7223 0.21348 8.5143e-06)
(10.6474 0.19287 7.8256e-06)
(10.5842 0.18306 7.2964e-06)
(10.5248 0.17962 6.8546e-06)
(10.4706 0.1785 6.6853e-06)
(10.4186 0.1784 6.4983e-06)
(10.3677 0.17595 6.1612e-06)
(10.3196 0.17445 5.9994e-06)
(10.2782 0.17089 6.158e-06)
(9.8028 -0.20118 3.9993e-07)
(9.9584 -0.37995 6.6279e-07)
(10.0077 -0.48734 8.2284e-07)
(9.9573 -0.27673 3.9865e-07)
(9.9726 -0.18397 2.8911e-07)
(9.9836 -0.12084 2.543e-07)
(9.9909 -0.07794 2.3327e-07)
(9.9954 -0.049433 2.2214e-07)
(9.979 -0.039872 2.3127e-07)
(9.9692 -0.021215 2.3706e-07)
(9.9682 0.00048825 2.3787e-07)
(9.9762 0.019433 2.3317e-07)
(9.9896 0.030244 2.2574e-07)
(9.9832 0.053392 2.5583e-07)
(9.9763 0.09215 3.8621e-07)
(9.9734 0.15658 8.1341e-07)
(9.9856 0.26162 1.6556e-06)
(10.045 0.43698 3.1775e-06)
(10.2325 0.67613 3.9775e-06)
(10.6499 0.98431 3.6572e-06)
(11.1787 0.74609 3.5063e-06)
(11.59 0.4524 2.7216e-06)
(11.647 0.1005 2.4345e-06)
(11.3055 -0.13584 2.1308e-06)
(11.0523 -0.11302 1.9698e-06)
(10.9329 -0.079102 1.8438e-06)
(10.8672 -0.070767 1.7143e-06)
(10.8237 -0.070815 1.5983e-06)
(10.7953 -0.07279 1.5339e-06)
(10.7671 -0.081475 1.5474e-06)
(10.7414 -0.091681 1.9e-06)
(10.7152 -0.10203 2.4041e-06)
(10.6822 -0.11075 2.6299e-06)
(10.6434 -0.12012 2.8009e-06)
(10.606 -0.12659 3.361e-06)
(10.5684 -0.1294 3.8237e-06)
(9.6613 -0.24844 4.5496e-07)
(7.558 -0.10508 7.2204e-08)
(7.8607 0.11904 1.6195e-07)
(9.2405 0.21443 1.1292e-06)
(10.2372 0.16644 5.8938e-06)
(9.5997 0.14553 4.9233e-07)
(9.6319 -0.077274 4.8677e-07)
(9.7027 -0.24346 4.909e-07)
(9.7489 -0.39849 6.5696e-07)
(9.8255 -0.57111 7.8085e-07)
(10.024 -0.61736 8.9798e-07)
(10.264 -0.59371 4.9667e-06)
(10.1167 -0.25038 3.3401e-06)
(10.0684 -0.17294 8.9021e-07)
(10.041 -0.11496 2.4465e-07)
(10.0241 -0.074053 2.2389e-07)
(10.0135 -0.046829 2.127e-07)
(10.0068 -0.028793 2.0786e-07)
(9.998 -0.030535 2.1769e-07)
(9.9899 -0.025225 2.2698e-07)
(9.9849 -0.014533 2.3292e-07)
(9.9843 -0.0016079 2.3394e-07)
(9.9881 0.0098003 2.2932e-07)
(9.9945 0.016647 2.2172e-07)
(10.0016 0.017633 2.1388e-07)
(10.0042 0.03107 2.2221e-07)
(10.0099 0.053015 9.6139e-07)
(10.0225 0.087867 3.9318e-06)
(10.0482 0.14182 8.4117e-06)
(10.1014 0.22419 1.4878e-05)
(10.2046 0.34246 2.1062e-05)
(10.4013 0.48697 2.2673e-05)
(10.7158 0.60717 2.1004e-05)
(11.1042 0.54465 1.9149e-05)
(11.4173 0.35991 1.6317e-05)
(11.5254 0.11973 1.4258e-05)
(11.4529 -0.051366 1.2866e-05)
(11.3353 -0.099443 1.191e-05)
(11.2468 -0.10419 1.1086e-05)
(11.1968 -0.10752 1.0455e-05)
(11.1596 -0.11401 9.8591e-06)
(11.1281 -0.12053 1.15e-05)
(11.0959 -0.12736 1.6269e-05)
(11.0611 -0.13392 1.9199e-05)
(11.0244 -0.13959 2.4477e-05)
(10.9827 -0.14594 2.8474e-05)
(10.9361 -0.15275 2.8362e-05)
(10.888 -0.15459 3.1404e-05)
(10.8398 -0.15318 3.8181e-05)
(10.7916 -0.15054 4.0347e-05)
(10.5324 -0.12831 4.256e-06)
(9.6768 -0.2398 4.949e-07)
(7.7439 -0.10337 6.9563e-08)
(8.0076 0.10667 1.3835e-07)
(9.2702 0.20072 1.0106e-06)
(10.2031 0.16385 5.7884e-06)
(10.5515 0.1252 4.2638e-05)
(10.5993 0.13118 4.2195e-05)
(10.6549 0.13637 3.8284e-05)
(10.7119 0.14111 3.7562e-05)
(10.7706 0.14388 3.6771e-05)
(10.8299 0.14781 3.6e-05)
(10.8901 0.15205 3.5331e-05)
(10.9522 0.15701 3.48e-05)
(11.017 0.16112 3.6684e-05)
(11.0857 0.16617 3.9269e-05)
(11.1651 0.17145 4.1903e-05)
(11.2696 0.1713 4.5012e-05)
(11.4005 0.14623 4.8714e-05)
(12.0762 1.5332 1.2364e-06)
(11.3605 -0.19583 0.00018692)
(11.4534 -0.090792 0.00019915)
(11.4624 -0.00051622 0.00021328)
(11.4086 0.05609 0.00022731)
(11.3294 0.080843 0.0002386)
(11.2523 0.084953 0.00025021)
(11.185 0.081227 0.00026325)
(11.1248 0.076156 0.00027736)
(11.0682 0.071914 0.00029187)
(11.0132 0.0689 0.00030551)
(10.9592 0.067305 0.00031844)
(10.9055 0.066732 0.00033063)
(10.8521 0.066384 0.00034205)
(10.7996 0.065132 0.00035267)
(10.749 0.062773 0.00036245)
(10.7037 0.055428 0.00037158)
(10.0028 -0.016556 2.0685e-07)
(9.9993 -0.01771 2.1713e-07)
(9.9961 -0.014894 2.2668e-07)
(9.9942 -0.0090314 2.3274e-07)
(9.9939 -0.00185 2.3377e-07)
(9.9953 0.0045412 2.291e-07)
(9.9977 0.0085407 2.2129e-07)
(10.0005 0.0093372 2.1304e-07)
(10.0028 0.0070812 4.3269e-05)
(10.0074 0.013124 6.3697e-05)
(10.0161 0.022901 8.4379e-05)
(10.0313 0.03834 0.00010503)
(10.0573 0.061851 0.00012573)
(10.1014 0.096621 0.00014698)
(10.1747 0.14672 0.00016903)
(10.2946 0.21223 0.00019225)
(10.4797 0.28194 0.00021672)
(10.7401 0.3401 0.0002268)
(11.026 0.30828 0.00024811)
(11.2729 0.21427 0.00025375)
(11.4037 0.088379 0.00025771)
(11.4198 -0.0033101 0.00026438)
(11.3757 -0.040452 0.00027316)
(11.3231 -0.045356 0.00028448)
(11.281 -0.043314 0.00029619)
(11.2463 -0.041542 0.00030989)
(11.2134 -0.039881 0.00032553)
(11.179 -0.039402 0.0003401)
(11.1421 -0.039757 0.00035366)
(11.102 -0.041267 0.00036603)
(11.0582 -0.043844 0.00037728)
(11.011 -0.046344 0.00038741)
(10.9614 -0.047443 0.00039622)
(10.9113 -0.047764 0.00040388)
(10.8621 -0.047342 0.00041065)
(10.8163 -0.046125 0.00043827)
(10.7483 -0.14458 6.4993e-05)
(10.5 -0.1211 2.6075e-05)
(9.6883 -0.22343 2.2333e-05)
(7.905 -0.095738 2.2403e-05)
(8.1423 0.092295 2.2378e-05)
(9.3097 0.18124 2.2966e-05)
(10.1796 0.15226 2.7205e-05)
(10.451 0.11911 6.1906e-05)
(10.6659 0.049925 0.00040151)
(9.4116 0.15687 5.8863e-07)
(9.4174 -0.096958 5.729e-07)
(9.4712 -0.30178 6.0172e-07)
(9.5526 -0.51727 7.273e-07)
(9.6887 -0.75748 8.4489e-07)
(9.9747 -0.83978 9.6746e-07)
(10.2506 -0.82719 3.1956e-06)
(10.4513 -0.56417 2.9581e-05)
(10.4854 -0.75447 1.6415e-05)
(10.6382 -0.63694 2.9261e-05)
(10.7134 -0.41377 8.4427e-05)
(10.7522 -0.25202 0.00024883)
(10.2169 -0.16852 0.00016732)
(10.1361 -0.11655 0.0001462)
(10.0838 -0.078807 0.00012557)
(10.0497 -0.051371 0.00010572)
(10.0278 -0.032676 8.5368e-05)
(10.0139 -0.020174 6.4615e-05)
(10.0056 -0.011691 4.3486e-05)
(11.0142 -0.25439 0.00022513)
(6.68 1.6793 1.6839e-06)
(1.1633 0.95755 9.1926e-07)
(4.7117 1.7793 1.3679e-06)
(8.604 1.1738 2.1446e-06)
(11.0342 0.48601 3.6898e-06)
(10.9301 -0.47562 6.5515e-05)
(11.2247 -0.30838 0.0001524)
(10.772 3.0148 1.2465e-06)
(11.4223 -0.43993 6.458e-05)
(7.9861 1.2912 1.8581e-06)
(10.7312 0.55982 2.9444e-06)
(11.6426 -0.61135 1.7876e-05)
(11.3442 -0.65434 2.9693e-05)
(11.1329 -0.54234 4.7363e-05)
(10.8196 -0.71631 2.3899e-05)
(10.6479 -0.93431 1.1376e-05)
(10.34 -1.1152 2.3566e-06)
(9.9503 -1.1723 1.0277e-06)
(9.5359 -1.0588 9.1842e-07)
(9.2825 -0.75216 8.1337e-07)
(9.1444 -0.41061 7.107e-07)
(9.0795 -0.080234 6.8366e-07)
(9.1348 0.30584 7.6968e-07)
(9.1971 0.74446 1.0467e-06)
(8.9624 3.3976 1.2188e-06)
(8.4201 2.3684 1.1797e-06)
(9.0294 1.256 1.1101e-06)
(6.5602 0.9076 1.2966e-06)
(10.0676 0.7356 1.7093e-06)
(11.0259 -0.83123 1.7535e-05)
(11.51 0.3437 2.4504e-06)
(11.932 0.84111 1.5393e-06)
(11.2946 -0.94258 1.2081e-05)
(11.5922 -1.0155 7.7857e-06)
(10.881 -1.1357 7.9039e-06)
(11.2275 -1.3621 5.1654e-06)
(11.5911 -1.5768 3.4686e-06)
(10.562 -1.4599 1.9112e-06)
(10.9795 -1.8992 1.5947e-06)
(8.8003 0.52475 8.7864e-07)
(10.0115 -1.6495 1.1252e-06)
(10.2895 -2.3063 1.1781e-06)
(8.5844 0.0039577 8.1577e-07)
(8.6019 -0.53701 8.4945e-07)
(8.2683 0.98486 9.5871e-07)
(9.3327 -1.5613 1.0382e-06)
(8.8417 -1.1389 9.4154e-07)
(9.1639 -2.3433 1.1098e-06)
(7.7619 0.20611 8.9826e-07)
(7.8279 -0.76893 9.364e-07)
(8.2175 -1.7566 1.0098e-06)
(8.6595 -3.8616 1.1372e-06)
(6.1895 0.64189 9.6996e-07)
(6.1721 -1.3722 1.0057e-06)
(6.7206 -3.0209 1.0609e-06)
(10.004 0.0026885 4.3934e-05)
(10.0107 0.0048606 6.497e-05)
(10.0228 0.0083954 8.5867e-05)
(10.0431 0.014038 0.00010645)
(10.0765 0.022455 0.00012663)
(10.1299 0.03449 0.00014732)
(10.2139 0.051035 0.00016932)
(10.3393 0.071264 0.00019269)
(10.515 0.091008 0.00021781)
(10.7424 0.10675 0.000243)
(10.9885 0.10042 0.00026809)
(11.2033 0.075296 0.0002914)
(11.3368 0.039854 0.0003113)
(11.3802 0.011269 0.00032853)
(11.3635 -0.0036768 0.00034402)
(11.3249 -0.0089583 0.00035758)
(11.2866 -0.011446 0.00037044)
(11.2524 -0.014385 0.00038261)
(11.2197 -0.017962 0.00039373)
(11.1865 -0.021898 0.00040374)
(11.1513 -0.025949 0.00041268)
(11.1134 -0.029934 0.00042056)
(11.0725 -0.03363 0.00042743)
(11.0287 -0.036775 0.00043328)
(10.9827 -0.039005 0.00043811)
(10.9358 -0.040293 0.00044215)
(10.8893 -0.04089 0.00044537)
(10.8456 -0.040657 0.00046942)
(10.7539 -0.040108 0.00045018)
(10.7237 -0.044711 0.00042131)
(10.6711 -0.13559 4.3839e-05)
(10.4508 -0.10433 4.2945e-06)
(9.7243 -0.18832 2.8625e-07)
(8.1456 -0.074636 -5.0962e-08)
(8.361 0.065999 -6.6848e-08)
(9.3783 0.14199 7.6138e-07)
(10.1508 0.12422 4.9598e-06)
(10.3911 0.10562 3.9025e-05)
(10.5896 0.049854 0.00038714)
(10.6944 0.02144 0.00044903)
(10.7703 0.021461 0.00046799)
(10.8082 0.021842 0.00044352)
(10.851 0.022819 0.00044001)
(10.8964 0.023038 0.00043576)
(10.9428 0.022749 0.0004307)
(10.9893 0.022186 0.00042469)
(11.0354 0.021633 0.0004177)
(11.0815 0.021346 0.00040967)
(11.1282 0.021475 0.00040059)
(11.1766 0.022073 0.00039049)
(11.2283 0.023108 0.00037981)
(11.2848 0.022808 0.00036974)
(11.3432 0.019455 0.00035814)
(11.3935 0.0084892 0.0003458)
(11.4136 -0.013815 0.00033242)
(11.3761 -0.043777 0.00031681)
(11.2624 -0.073563 0.00029495)
(11.0694 -0.11969 0.00027157)
(10.8066 -0.062847 0.00024442)
(10.5792 -0.062646 0.00020317)
(10.4045 -0.061393 0.00017942)
(10.2703 -0.05197 0.00016195)
(10.1736 -0.03922 0.00014399)
(10.1076 -0.027727 0.00012554)
(10.0638 -0.018641 0.00010634)
(10.0356 -0.012018 8.6316e-05)
(10.0178 -0.0074402 6.5684e-05)
(10.0071 -0.0042643 4.454e-05)
(10.0016 -0.0019773 6.4117e-07)
(10.0012 -0.0054629 2.3687e-07)
(10.0006 -0.0077807 -2.1726e-05)
(9.9999 -0.0083736 -2.1731e-05)
(9.9992 -0.0071793 -2.1725e-05)
(9.9987 -0.0045938 -2.1722e-05)
(9.9987 -0.0013847 -2.1721e-05)
(9.9989 0.0015432 -2.166e-05)
(9.9995 0.00344 -2.1606e-05)
(10.0001 0.0039139 -2.1593e-05)
(10.0006 0.0030128 3.9954e-07)
(10.0009 0.0011238 7.0681e-07)
(6.2624 -4.5688 1.0937e-06)
(9.1016 -6.4662 1.1575e-06)
(12.2473 -5.878 1.158e-06)
(13.4323 -4.8366 1.119e-06)
(13.1789 -2.5271 1.1049e-06)
(10.6537 -1.9971 1.0358e-06)
(3.3972 -2.3968 8.601e-07)
(-2.0581 -0.20442 6.9366e-07)
(-2.4701 0.014725 5.6039e-07)
(-5.277 1.8769 4.8185e-07)
(9.5446 3.0429 9.6888e-07)
(12.7774 3.3221 1.0904e-06)
(12.9035 5.516 1.1483e-06)
(11.35 6.5097 1.1832e-06)
(5.1791 1.2768 1.0284e-06)
(5.0662 -1.885 1.0568e-06)
(5.9366 0.34408 6.0725e-07)
(12.51 1.1001 1.0667e-06)
)
;

boundaryField
{
    bottom
    {
        type             symmetry;
    }
    inlet
    {
        type             fixedValue;
        value            uniform (10 0 0);
    }
    object
    {
        type             noSlip;
    }
    outlet
    {
        type             zeroGradient;
    }
    side1
    {
        type             empty;
    }
    side2
    {
        type             empty;
    }
    top
    {
        type             symmetry;
    }
}

// ************************************************************************* //
