/*--------------------------------*- C++ -*----------------------------------*\\
| =========                 |                                                 |
| \\      /  F ield         | OpenFOAM: The Open Source CFD Toolbox           |
|  \\    /   O peration     | Version:  v1706                                 |
|   \\  /    A nd           | Web:      www.OpenFOAM.com                      |
|    \\/     M anipulation  |                                                 |
\\*---------------------------------------------------------------------------*/
FoamFile
{
    version     2.0;
    format      ascii;
    class       surfaceScalarField;
    location    "0.3";
    object      mdot_f;
}
// * * * * * * * * * * * * * * * * * * * * * * * * * * * * * * * * * * * * * //

dimensions      [1 0 -1 0 0 0 0]


internalField   nonuniform List<scalar>
906
(
-0.025003
0.01828
0.0038468
0.0028764
-0.0046075
-0.019434
-0.00096099
-0.030443
0.034177
0.019587
-0.023321
0.035349
-0.031925
-0.033867
0.0056895
0.064677
-0.06383
-0.0065365
0.0027886
-0.065089
0.06799
-0.03871
0.036825
-0.0016207
0.0035056
-0.022632
0.015836
-0.031915
-0.069983
0.043384
-0.0089769
0.035576
-0.002112
0.0018532
-0.069725
0.055563
-0.011042
0.013615
-0.058135
0.015906
-0.0056822
0.045339
-0.02415
-0.017623
0.008228
0.033544
-0.029634
0.035283
-0.029799
0.04647
-0.011427
0.075514
-0.063908
0.0043004
0.00023443
0.071776
0.003503
-0.0049768
-0.069973
0.02134
-0.014082
-0.0072573
-0.0029439
0.024283
0.014593
-0.021524
-0.0071512
0.036903
-0.01924
0.016999
-0.034662
0.039565
0.028573
-0.031235
0.038009
-0.021854
-0.029249
0.013094
0.041911
0.025703
-0.029604
0.032491
-0.0098205
-0.02067
0.019821
0.044233
-0.067627
0.052991
-0.0060334
-0.067546
-0.0021936
-0.0029238
0.004695
0.018922
-0.020693
0.0055382
0.002786
-0.011248
0.049405
-0.031663
0.024276
-0.042019
0.05156
0.01146
-0.050233
0.012242
0.011576
-0.040994
0.064129
0.012215
-0.025949
-0.041114
0.026069
-0.041027
-0.016847
0.0086268
0.044945
-0.0096916
-0.04388
0.035577
-0.0036663
-0.023284
0.0023591
0.037913
0.058006
-0.010701
0.036186
0.009706
-0.019596
-0.0072049
0.017094
-0.0175
0.024932
0.002274
-0.02321
-0.013886
-0.0036473
0.058317
0.0094591
0.023241
0.00018594
-0.030632
0.020893
0.019442
0.047033
0.007024
-0.007587
-0.041133
0.046522
0.015504
0.0060853
0.0027107
0.002698
0.0029015
-0.041218
-0.024376
0.00057657
-0.010068
-0.048389
0.026915
0.03474
0.0096346
0.0090266
0.04035
0.0019563
-0.013491
0.041784
0.0024226
-0.0022705
-0.0048381
0.0062997
0.041983
0.00082448
0.0085329
-0.039042
0.012076
0.042802
0.0074043
0.021645
0.0051366
0.043113
-0.0019412
-0.046308
0.039728
0.0022339
0.0010958
0.043012
-0.00099523
0.039184
0.0016393
0.00090097
0.042558
-0.00044693
0.038857
0.0012283
0.00038749
0.042414
-0.00024385
0.038922
0.00032203
0.00036153
0.042277
-0.00022415
0.038993
0.0002909
-8.9785e-05
0.042577
-0.00021026
0.03918
-0.00027644
-9.291e-05
0.042459
0.00021104
0.039368
-0.00028106
-4.4927e-05
0.042799
-0.00029541
0.039698
-0.00037555
-6.0326e-05
-5.16e-05
0.042911
0.03959
4.7605e-05
-0.069367
0.0064711
0.065684
0.0054516
-0.066241
-0.0042992
-0.067622
0.0037072
0.0034648
-0.003775
-0.065931
0.002679
-0.066836
-0.0644
-0.0037287
-0.065255
-0.0029203
0.063667
0.0017431
0.068415
0.0073274
0.063555
0.0029185
0.062049
0.00051102
0.061153
0.00044862
0.060732
0.00017743
0.06027
0.00023802
0.060336
-0.00027582
0.060791
-0.00024439
0.060869
-0.00037356
0.060554
0.00026302
0.070824
-0.00019494
-0.00020025
0.039986
-0.00011581
0.042832
-0.00067985
0.061118
-0.068049
0.068588
0.0031681
-0.067394
0.002024
-0.002058
0.0014031
-0.066739
-0.0024265
-0.066468
-0.002318
-0.066039
-0.06585
-0.0017226
0.069553
0.010409
0.064093
0.0038397
0.064289
0.0020382
0.063712
0.0022162
0.063396
0.0015441
0.062976
0.00074189
0.062829
0.0004386
0.063143
-0.00059043
0.063563
-0.0007016
0.063207
-1.9622e-05
0.062927
0.00032782
-0.0006235
0.06335
0.072802
0.074762
0.0053667
0.074454
0.003227
0.072845
0.0021195
0.072235
0.0010594
0.071809
0.00060262
0.071641
0.00040624
0.071622
-0.00025676
0.07161
-0.00023219
0.071025
0.00021079
0.071413
-0.00012412
0.071678
-0.00094524
0.0056796
0.06938
0.057078
-0.077032
0.021807
0.0088512
0.03925
-0.070009
-0.0013432
-0.067969
0.0011285
-0.0674
0.0014542
-0.066798
0.00080109
-0.0010461
0.00063551
-0.066387
-0.0014114
-0.066374
-0.0015945
-0.066285
-0.0011016
-0.066532
-0.00085197
-0.0661
0.06571
-0.066376
-0.00018517
0.065
-0.0010133
0.064049
-0.0019695
0.063721
-0.0034005
0.061214
-0.0040293
0.055142
-0.0053552
0.050214
-0.0026593
0.05262
0.0036799
0.050661
0.0046571
0.066451
0.010279
0.067012
0.008898
0.071347
0.0060738
0.071551
0.0036352
0.070572
0.0030176
0.07111
0.0016781
0.071209
0.0014453
0.071415
0.00053597
0.071452
0.00040133
0.071635
-0.00077361
0.071761
-0.00082729
0.071502
0.00023859
0.071502
0.00032851
0.071606
-0.00072763
0.00044153
-0.00037372
0.071538
0.00033699
0.063455
0.00030333
0.040019
-0.00015476
0.04329
-0.00012898
0.061093
0.071535
1.4279e-05
-0.0041237
0.042315
0.013486
0.048075
0.04579
0.037075
0.03613
0.031467
0.023067
0.021914
0.027328
0.034989
0.028003
0.034901
-0.070077
-0.00099109
-0.068698
-0.00024994
-0.067729
0.00048463
-0.067269
0.00034082
-0.066918
0.00028466
-0.00085878
-0.06623
0.00017052
-0.00058352
-0.066662
-0.000333
-0.066625
-1.7329e-05
-0.066601
4.582e-05
-0.066596
0.0002157
-0.06627
0.00041706
-0.066578
0.0661
-0.066587
0.00090425
0.06575
0.00016477
0.065239
-0.00050156
0.064925
-0.0016558
0.063729
-0.0022048
0.062535
-0.0028356
0.059661
-0.0024807
0.057743
-0.00074162
0.05708
0.0043434
0.060981
0.00075575
0.066313
0.0049474
0.07003
0.0051803
0.072082
0.0040224
0.072655
0.0030616
0.073613
0.0020596
0.073511
0.0017809
0.073746
0.0012098
0.074235
4.7226e-05
0.0752
-0.00056416
0.074498
-7.1081e-05
0.07419
-0.00051988
0.07466
-0.00023117
0.074345
0.00064405
0.073636
-1.8597e-05
0.074182
-0.00092005
0.00048033
-0.00013551
0.073837
0.00037415
0.071644
0.00020013
0.063629
-2.7073e-06
0.040222
-4.8042e-05
0.043335
7.2316e-05
0.060972
-0.00023077
0.071838
-0.074462
-0.00014858
0.07438
-0.073604
-0.00084418
-0.074499
-4.9478e-05
-0.074556
-6.7455e-05
-0.074257
-8.828e-05
-0.074373
-0.00011648
-0.074471
-0.0001587
-0.07451
0.00044531
-0.074641
0.00073375
-0.074861
0.0012797
-0.074951
0.0022091
-0.074602
0.0028779
0.0025409
-0.036549
-0.0028141
0.066871
-0.065917
-0.0059306
0.069782
0.0013896
0.071524
0.001761
0.072311
0.0017535
0.07369
0.001499
0.0747
0.0011987
0.07478
0.0012002
0.075216
0.00029749
0.07577
-0.00010884
0.075693
-8.192e-05
0.075637
-6.029e-05
0.075594
-4.4783e-05
0.07556
-3.3639e-05
0.075535
-2.5105e-05
0.074709
-1.8242e-05
0.074575
-1.4462e-05
-0.000131
0.00057973
-0.066678
-0.00012788
-0.066665
-9.9091e-05
-0.066653
-5.3848e-05
-0.066646
-5.303e-06
-0.066644
0.00037358
-0.066649
0.00045324
-0.066657
0.00053314
-0.066667
0.066531
0.0006776
-0.066676
0.06738
5.5042e-05
0.067449
9.6339e-05
0.066784
0.0001635
0.065798
-0.00066999
0.0647
-0.0011066
0.062622
-0.00075777
0.060871
-0.00072946
0.06034
-0.00021062
0.06316
0.0015235
0.063245
0.00067011
0.066038
0.0021552
0.068993
0.0022245
0.071211
0.0018052
0.073034
0.0012386
0.073745
0.0013479
0.074754
0.00077248
0.076051
-8.7297e-05
0.076171
-7.2733e-05
0.075661
-5.4575e-05
0.075628
-3.7546e-05
0.075132
-2.3959e-05
0.074916
-1.5616e-05
0.075573
-1.2769e-05
0.075563
-8.9389e-06
0.074646
-3.0262e-06
0.074511
-1.1071e-07
0.00040584
-0.00050386
0.074609
-1.1387e-06
0.074244
4.8541e-06
0.071638
1.1412e-05
0.063622
1.276e-06
0.040232
-4.4246e-05
0.043381
-0.0005803
0.061508
-0.00047451
0.071732
-0.00055238
0.074458
0.074034
-1.13e-05
-0.0011709
0.025863
0.014357
0.032547
0.01996
0.031472
0.022765
0.028663
0.018568
0.026111
0.023291
0.030267
0.022062
0.029232
0.022759
0.031963
0.0088854
0.035936
-0.0022441
0.043092
-0.0032957
0.045285
0.050792
-0.0010972
-0.068062
-0.00047523
-0.067979
-0.0003332
-0.067455
-3.905e-05
-0.06714
2.6331e-05
-0.066774
-8.1241e-05
-0.066817
0.00021283
0.00045186
-0.066689
-0.017858
0.053127
0.015523
-0.0088043
-0.015555
0.0068202
-0.0080437
0.0020479
-0.013232
-0.010114
-0.028725
-0.042534
0.046009
-0.018582
0.021612
-0.034402
-0.026224
-0.00069041
-0.006019
-0.042343
-0.018383
-0.023574
-0.036641
-0.027696
-0.028556
-0.036701
-0.033337
-0.025094
-0.016034
0.040544
-0.019125
0.039028
-0.020052
0.030159
-0.018647
0.028862
-0.017735
0.025198
-0.013369
0.024297
-0.0082733
0.026376
-0.0036759
0.027949
0.030415
0.032888
0.0026124
-0.026894
-0.026187
-0.0067896
-0.019889
-0.011729
-0.032531
-0.023998
0.03909
-0.02364
-0.045977
0.0035131
0.032495
-0.026742
-0.027296
0.036755
-0.021367
0.036256
-0.026243
0.029744
-0.020952
-0.026103
0.005289
0.027738
0.026332
-0.018422
-0.021626
0.0091746
0.024064
0.012165
0.023386
-0.0005753
-0.015733
0.022508
0.02073
-0.016601
0.017484
0.0048537
0.018635
0.011285
0.016954
0.015414
-0.020834
0.0090679
0.0032049
0.0082787
0.013264
0.0068945
0.0078449
0.067358
-0.06668
0.067413
0.067509
0.067673
0.067003
0.065896
0.065138
0.064409
0.064198
0.065722
0.066392
0.068547
0.070772
0.072577
0.073815
0.075163
0.075936
0.075849
0.075776
0.075721
0.075684
0.07566
0.075644
0.075631
0.075622
0.075619
0.075619
0.075115
0.00021853
3.0906e-06
-7.644e-06
1.9883e-06
1.6645e-06
-1.5095e-05
-3.6254e-05
-5.15e-05
-3.2676e-05
-2.5492e-05
-0.00073622
-0.075426
-0.075437
-0.075452
-0.07547
-0.075495
-0.075529
-0.075573
-0.075634
-0.075716
-0.075824
-0.075527
-0.074327
-0.073128
-0.071629
-0.069876
-0.068115
-0.066725
-0.072656
-0.057133
-0.05823
-0.064263
-0.066457
-0.066932
-0.067265
-0.067305
-0.067278
-0.067359
-0.067147
-0.066695
-2.8066e-05
-5.0336e-05
-6.2001e-05
-6.0707e-05
-4.7497e-05
-2.6582e-05
-4.0329e-06
1.3952e-05
2.3286e-05
2.2613e-05
1.3579e-05
0.015761
-0.0079159
0.024829
0.037923
0.028102
0.031616
0.0076174
-0.0041121
-0.0020641
0.0042357
0.0019653
-0.021356
-0.020779
-0.023593
0.0010213
)
;

boundaryField
{
    bottom
    {
        type             calculated;
        value            uniform 0;
    }
    inlet
    {
        type             calculated;
        value            nonuniform List<scalar>
12
(
-0.066667
-0.066667
-0.066667
-0.066667
-0.066667
-0.066667
-0.066667
-0.066667
-0.066667
-0.066667
-0.066667
-0.066667
)
;
    }
    object
    {
        type             calculated;
        value            uniform 0;
    }
    outlet
    {
        type             calculated;
        value            nonuniform List<scalar>
12
(
0.074898
0.074689
0.074743
0.074448
0.07171
0.061521
0.043403
0.04025
0.063624
0.07163
0.074256
0.074826
)
;
    }
    side1
    {
        type             calculated;
        value            uniform 0;
    }
    side2
    {
        type             calculated;
        value            uniform 0;
    }
    top
    {
        type             calculated;
        value            uniform 0;
    }
}

// ************************************************************************* //
