/*--------------------------------*- C++ -*----------------------------------*\\
| =========                 |                                                 |
| \\      /  F ield         | OpenFOAM: The Open Source CFD Toolbox           |
|  \\    /   O peration     | Version:  v1706                                 |
|   \\  /    A nd           | Web:      www.OpenFOAM.com                      |
|    \\/     M anipulation  |                                                 |
\\*---------------------------------------------------------------------------*/
FoamFile
{
    version     2.0;
    format      ascii;
    class       volScalarField;
    location    "0.3";
    object      p;
}
// * * * * * * * * * * * * * * * * * * * * * * * * * * * * * * * * * * * * * //

dimensions      [0 2 -2 0 0 0 0]


internalField   nonuniform List<scalar>
479
(
-14.7511
-22.962
-20.0989
-11.2601
14.6657
15.3304
1.7148
0.54864
10.1939
11.2439
-7.0514
-6.4103
19.1222
16.9296
15.2947
-4.0832
-4.0046
-3.3913
49.8984
28.2501
34.0483
-12.6019
-10.6239
-2.4748
-9.2872
-20.1034
8.4298
8.2659
9.9706
-8.8618
-15.0546
-10.5867
-11.1827
-8.6425
-6.5448
-9.714
-5.7603
-10.5315
-10.7603
-11.2496
-7.0586
-7.1277
-9.7507
14.3891
15.6086
16.941
-7.9478
14.3671
10.0492
14.4442
6.0435
11.8882
0.26424
-7.269
-23.6513
-16.0638
6.0729
-1.6425
17.3704
17.2426
-13.9686
-35.4932
-30.1457
-10.1699
-23.6116
-3.013
0.46976
-2.8608
-5.0658
0.91618
1.1787
0.48497
0.61866
0.33602
0.40509
0.2222
0.34274
0.11798
0.21265
0.050076
0.12375
-0.008139
0.063013
0.010977
0.060021
0.0071111
0.030406
15.1125
14.5138
14.3988
13.9947
13.9141
14.1585
13.8107
-4.0129
-2.3258
-0.59921
-0.14278
-0.14226
-0.11952
-0.083382
-0.04237
-0.048936
-0.0027144
-0.019084
-6.3857
0.032882
0.018083
0.025797
13.9408
13.6051
13.3952
13.6038
13.6675
13.5752
-6.2505
-0.73077
0.34755
0.098554
-0.02987
0.056428
0.050455
0.067707
0.060191
0.039521
-0.017171
0.030457
-4.518
-3.367
-2.0493
-1.1651
-0.7618
-0.53505
-0.37699
-0.24598
-0.17505
-0.12075
-0.1083
-0.044696
14.4723
13.2238
12.5257
13.2177
13.1657
13.1157
13.082
13.0623
13.2672
13.4108
13.4635
13.422
13.3145
13.3812
13.4667
13.5548
13.5809
13.3135
12.0231
8.7288
2.8004
-2.4698
-5.595
-5.1271
-2.4205
-0.9049
-0.54312
-0.45043
-0.29809
-0.18927
-0.092089
-0.056678
-0.068661
-0.077062
-0.018809
0.0012237
0.06393
0.057318
0.033173
0.03977
-0.041975
16.5444
16.1909
15.4355
14.743
14.019
11.6766
9.6429
11.9482
12.3481
12.5928
12.7478
12.8453
12.9064
13.0522
13.192
13.2943
13.3398
13.3258
13.2681
13.1916
13.1835
13.1592
13.0962
12.9472
12.6121
11.8898
10.3908
7.6706
3.6594
-0.28935
-2.7476
-3.0818
-2.0275
-1.0093
-0.5496
-0.38738
-0.25987
-0.14779
-0.059369
-0.021115
-0.016594
-0.00847
0.019517
0.030806
0.028281
-0.0024589
0.056094
0.072695
0.037045
0.021645
-0.040468
-0.024893
-0.044612
-0.062184
-0.11245
-0.16272
-0.22909
-0.33241
-0.48708
-0.68701
-0.97879
-1.462
-2.2518
-3.2371
-10.5745
-1.1261
-2.5009
-3.0219
-2.7466
-2.1485
-1.5715
-1.1407
-0.84107
-0.6227
-0.45479
-0.33043
-0.24133
-0.17509
-0.1246
-0.089406
-0.064523
12.9413
13.0478
13.1513
13.2303
13.2713
13.2716
13.2405
13.1942
13.1509
13.1233
13.0701
12.9725
12.7975
12.4869
11.946
11.017
9.4915
7.1935
4.172
1.1171
-1.0131
-1.8196
-1.6181
-1.0936
-0.71864
-0.52879
-0.40214
-0.29015
-0.20133
-0.14255
-0.10812
-0.084673
-0.059734
-0.03801
-0.028283
-0.021611
0.021113
-0.018932
0.023238
0.054331
0.029557
0.036717
-0.0093
-0.0088823
-0.046018
18.3326
18.0162
17.5252
16.5362
15.1575
12.2366
9.4984
8.0616
7.4354
6.347
6.2492
5.7853
11.0564
11.7465
12.1935
12.4847
12.6715
12.7883
12.8547
2.8864
-14.1417
-30.0196
-20.7955
-13.9068
-12.2969
3.6732
0.14101
4.3137
-1.9753
-17.9331
-9.1272
-4.8013
-1.6077
1.1423
4.1983
5.4984
8.4842
12.4457
16.4011
18.9236
20.3785
21.0709
21.0755
20.3826
22.11
22.6857
22.0142
-28.6531
-13.4759
1.6277
-9.551
-23.7172
-1.4799
-5.702
2.6683
-1.4072
-7.162
5.8372
0.59888
23.8335
11.4437
8.1999
25.253
24.4682
27.3804
17.755
22.1602
18.838
30.761
30.413
26.8228
17.1081
39.438
39.1711
33.2234
13.1256
13.084
13.0051
12.8671
12.632
12.2396
11.6005
10.5956
9.089
7.006
4.3988
1.7787
-0.20893
-1.2018
-1.329
-1.0371
-0.72415
-0.51997
-0.38483
-0.27475
-0.18482
-0.12035
-0.079709
-0.053883
-0.032112
-0.013412
-0.002566
0.0026279
0.0069671
-0.0126
0.01908
-0.015139
0.0075903
0.026467
0.014603
0.021945
-0.024242
-0.013884
-0.030861
-0.02041
-0.038953
-0.060502
-0.088657
-0.12801
-0.18123
-0.25325
-0.35227
-0.48734
-0.66549
-0.8967
-1.2011
-1.5957
-2.0414
-2.3838
-2.3387
-1.579
0.097028
2.5548
5.2617
7.6131
9.3302
10.5568
11.4034
11.9694
12.3389
12.5758
12.7231
12.8066
12.84
12.8813
12.9552
13.0463
13.1355
13.2052
13.2442
13.25
13.2294
13.1949
13.1616
13.1417
49.6762
16.1851
-32.271
-63.5128
-73.3865
-60.7904
-45.6234
-36.8764
-34.9835
-39.0697
-46.9526
-51.4127
-49.5337
-11.814
56.4555
56.775
1.9036
-16.6847
)
;

boundaryField
{
    bottom
    {
        type             symmetry;
    }
    inlet
    {
        type             zeroGradient;
    }
    object
    {
        type             zeroGradient;
    }
    outlet
    {
        type             fixedValue;
        value            uniform 0;
    }
    side1
    {
        type             empty;
    }
    side2
    {
        type             empty;
    }
    top
    {
        type             symmetry;
    }
}

// ************************************************************************* //
