/*--------------------------------*- C++ -*----------------------------------*\\
| =========                 |                                                 |
| \\      /  F ield         | OpenFOAM: The Open Source CFD Toolbox           |
|  \\    /   O peration     | Version:  v1706                                 |
|   \\  /    A nd           | Web:      www.OpenFOAM.com                      |
|    \\/     M anipulation  |                                                 |
\\*---------------------------------------------------------------------------*/
FoamFile
{
    version     2.0;
    format      ascii;
    class       volVectorField;
    location    "0.3";
    object      U;
}
// * * * * * * * * * * * * * * * * * * * * * * * * * * * * * * * * * * * * * //

dimensions      [0 1 -1 0 0 0 0]


internalField   nonuniform List<vector>
479
(
(5.4174 -1.7977 4.8698e-07)
(7.0053 -1.4457 4.8991e-07)
(10.5691 -0.081203 4.2718e-07)
(11.9008 -0.23515 5.1736e-07)
(9.8306 0.20655 3.7418e-07)
(9.7252 0.092427 2.3416e-07)
(5.5281 -0.1258 1.0416e-06)
(5.4249 -0.2822 1.07e-06)
(10.3065 -0.44695 7.5116e-06)
(10.2185 -0.35301 8.4586e-06)
(11.7891 -0.27145 2.3404e-05)
(11.7137 -0.03875 2.2103e-05)
(9.3478 0.38308 3.903e-07)
(9.5726 0.40419 5.0982e-07)
(9.8005 0.41218 7.9562e-07)
(11.6032 -0.01789 6.6136e-05)
(11.5658 0.049119 6.5637e-05)
(11.5808 -0.20992 7.7632e-05)
(6.3039 3.218 2.4848e-07)
(8.6185 5.6637 2.5933e-07)
(6.7531 1.8965 2.6152e-07)
(12.0644 -0.98574 2.0112e-06)
(11.8883 -0.86515 4.828e-06)
(10.978 -3.0076 2.4582e-07)
(11.6749 -2.4704 4.4361e-07)
(12.2591 -1.2358 4.021e-07)
(10.5139 -0.42562 7.428e-05)
(10.5364 -0.24284 0.00021581)
(10.3625 -0.2407 0.00019037)
(5.0463 1.8347 2.4821e-06)
(1.9867 1.8391 1.8467e-06)
(11.8059 -0.049569 7.0517e-06)
(11.8133 0.035482 1.055e-05)
(11.8494 -0.56864 1.3226e-05)
(3.0899 -1.0813 7.9885e-07)
(11.7958 -0.01848 6.8726e-07)
(11.6509 0.62869 8.3866e-07)
(11.7895 1.0203 6.0387e-07)
(11.1301 0.56135 6.1025e-06)
(8.7828 1.219 3.7095e-06)
(7.8231 1.274 3.5517e-06)
(10.8075 0.56702 7.9617e-06)
(11.658 0.20684 1.0515e-05)
(9.5517 2.0901 4.9857e-07)
(9.6113 2.4685 4.8373e-07)
(9.2631 1.9049 4.7738e-07)
(11.5033 -0.33019 6.7236e-07)
(9.8497 1.4706 5.6147e-07)
(10.0738 1.8905 5.3353e-07)
(9.9406 0.77456 1.2559e-06)
(10.7513 1.3427 1.0002e-06)
(10.3324 1.025 1.2428e-06)
(11.3146 1.0636 9.9371e-07)
(11.6283 1.4867 6.7394e-07)
(12.2589 -0.73046 4.3836e-07)
(12.2817 1.3489 4.3974e-07)
(10.4288 2.4239 5.0429e-07)
(11.1527 1.9886 6.5559e-07)
(9.5642 0.81338 6.2937e-07)
(9.5522 1.1788 5.6437e-07)
(10.5667 -0.66472 4.9405e-07)
(8.3565 -0.69466 4.7153e-07)
(-1.7589 -0.30532 8.8824e-07)
(9.6235 -1.0757 4.9107e-07)
(-2.2007 -0.65468 1.1185e-06)
(3.4023 0.49416 1.8098e-06)
(5.9862 0.35337 2.5788e-06)
(6.5824 0.97005 3.2135e-06)
(7.6956 -0.8835 5.5458e-07)
(6.186 0.15397 2.6012e-06)
(5.6973 -0.038808 1.2275e-06)
(6.3026 0.10231 2.6747e-06)
(5.7836 -0.0023109 1.2545e-06)
(6.3536 0.063784 2.6884e-06)
(5.8205 0.027577 1.2754e-06)
(6.3871 0.029618 2.6841e-06)
(5.8415 0.041196 1.2776e-06)
(6.4156 0.0073817 2.6783e-06)
(5.8641 0.046334 1.2797e-06)
(6.4394 -0.0051686 2.6689e-06)
(5.9013 0.04402 1.2654e-06)
(6.4436 -0.014007 2.6427e-06)
(5.9321 0.037835 1.2525e-06)
(6.4648 -0.018459 2.6443e-06)
(5.9694 0.035061 1.2396e-06)
(6.4712 -0.021719 2.6255e-06)
(5.9729 0.037324 1.2327e-06)
(9.7507 -0.083529 2.2046e-07)
(9.8349 0.029727 2.2408e-07)
(9.8419 -0.067675 2.216e-07)
(9.9 0.0062556 2.2435e-07)
(9.9042 -0.053789 2.2335e-07)
(9.8856 0.10894 2.5158e-07)
(9.9274 0.056265 2.2511e-07)
(10.1234 0.57438 7.3887e-06)
(9.3421 0.40963 6.5835e-06)
(9.2241 0.28146 6.5334e-06)
(9.1999 0.20479 6.4812e-06)
(9.1987 0.14983 6.4265e-06)
(9.1947 0.11018 6.371e-06)
(9.1896 0.083489 6.3158e-06)
(9.1945 0.066898 6.2998e-06)
(9.1896 0.057216 6.2694e-06)
(9.1978 0.049852 6.2692e-06)
(9.1963 0.044052 6.2182e-06)
(11.5599 0.14853 1.6903e-05)
(5.9905 0.035688 1.2304e-06)
(6.4805 -0.021396 2.6139e-06)
(9.2104 0.040879 6.2642e-06)
(9.8901 -0.15382 2.16e-07)
(9.9348 -0.10496 2.1755e-07)
(9.9631 -0.070128 2.1931e-07)
(9.9445 -0.039305 2.2535e-07)
(9.9416 -0.0033267 2.2639e-07)
(9.9559 0.028117 2.2227e-07)
(10.1919 -0.51019 6.3676e-07)
(9.8542 -0.35608 6.3191e-07)
(9.6802 -0.25259 6.4745e-07)
(9.6052 -0.19044 6.5822e-07)
(9.5367 -0.1449 6.659e-07)
(9.513 -0.11137 6.6526e-07)
(9.4945 -0.08954 6.6493e-07)
(9.5047 -0.076518 6.7425e-07)
(9.5194 -0.068203 6.8787e-07)
(9.5237 -0.060644 6.8661e-07)
(9.521 -0.054471 6.8635e-07)
(9.5281 -0.050722 7.0122e-07)
(11.3835 0.21454 1.6726e-05)
(11.0996 0.21645 1.5699e-05)
(10.9356 0.16541 1.5247e-05)
(10.8664 0.11468 1.5076e-05)
(10.8274 0.078828 1.4907e-05)
(10.8054 0.053388 1.4768e-05)
(10.7864 0.034895 1.4622e-05)
(10.778 0.021267 1.4652e-05)
(10.7731 0.012924 1.4669e-05)
(10.7697 0.0056564 1.4554e-05)
(10.7608 0.0017722 1.4484e-05)
(10.7625 -0.0015875 1.4898e-05)
(9.8117 -0.22345 2.1477e-07)
(9.9755 -0.39853 4.4502e-07)
(10.0316 -0.50851 4.4302e-07)
(9.9695 -0.29308 2.5484e-07)
(9.9809 -0.19672 2.0719e-07)
(9.9891 -0.13062 2.0845e-07)
(9.9942 -0.085207 2.0996e-07)
(9.9973 -0.054605 2.1164e-07)
(9.9803 -0.046021 2.2119e-07)
(9.9698 -0.027905 2.2743e-07)
(9.9679 -0.0061988 2.2868e-07)
(9.9752 0.013325 2.2428e-07)
(9.9881 0.025111 2.1691e-07)
(9.9804 0.045961 2.267e-07)
(9.9715 0.081912 3.3619e-07)
(9.9655 0.143 7.5006e-07)
(9.9734 0.24424 1.607e-06)
(10.0259 0.41586 3.2192e-06)
(10.2037 0.65224 4.1466e-06)
(10.6089 0.96255 3.7996e-06)
(11.1235 0.72712 3.6314e-06)
(11.5166 0.43799 2.6651e-06)
(11.5852 0.11606 2.3996e-06)
(11.2523 -0.11182 2.1475e-06)
(11.0015 -0.087519 2.0542e-06)
(10.8846 -0.039468 1.9995e-06)
(10.8262 -0.017286 1.9429e-06)
(10.7878 -0.0047325 1.9001e-06)
(10.7623 0.008344 1.8715e-06)
(10.7446 0.017254 1.8484e-06)
(10.7425 0.023231 1.9753e-06)
(10.746 0.027058 2.1359e-06)
(10.7473 0.030138 2.1164e-06)
(10.7396 0.029659 2.0916e-06)
(10.7401 0.029725 2.2357e-06)
(10.7416 0.031013 2.325e-06)
(9.5343 -0.047017 7.1276e-07)
(6.0152 0.032668 1.2202e-06)
(6.4892 -0.021575 2.5957e-06)
(9.2133 0.037517 6.2316e-06)
(10.7613 -0.0049952 1.4782e-05)
(9.5914 0.11064 2.3194e-07)
(9.6354 -0.11246 2.1919e-07)
(9.7146 -0.27344 2.1434e-07)
(9.7673 -0.42916 2.8721e-07)
(9.851 -0.60287 3.1648e-07)
(10.0557 -0.64342 3.9488e-07)
(10.2972 -0.61118 4.4021e-06)
(10.1302 -0.26055 3.016e-06)
(10.0779 -0.1818 7.1448e-07)
(10.0473 -0.12204 1.9951e-07)
(10.0281 -0.079416 2.0054e-07)
(10.0158 -0.0507 2.0179e-07)
(10.0079 -0.031395 2.0319e-07)
(9.9989 -0.033973 2.1345e-07)
(9.9906 -0.029271 2.2319e-07)
(9.9852 -0.018906 2.2957e-07)
(9.9842 -0.0059703 2.3094e-07)
(9.9876 0.0058098 2.2654e-07)
(9.9938 0.013297 2.1893e-07)
(10.0008 0.015065 2.1104e-07)
(10.0023 0.02724 2.0947e-07)
(10.0065 0.047513 9.9501e-07)
(10.0168 0.080389 4.0495e-06)
(10.0392 0.13208 8.6748e-06)
(10.0878 0.212 1.5389e-05)
(10.1846 0.32779 2.1974e-05)
(10.3729 0.47115 2.4159e-05)
(10.6782 0.59166 2.2739e-05)
(11.0565 0.53425 2.1114e-05)
(11.3602 0.35871 1.8312e-05)
(11.4758 0.13394 1.6307e-05)
(11.4161 -0.030155 1.5062e-05)
(11.3063 -0.071898 1.4324e-05)
(11.2265 -0.06527 1.3723e-05)
(11.1901 -0.057364 1.3349e-05)
(11.1694 -0.053185 1.3017e-05)
(11.1556 -0.048177 1.2824e-05)
(11.1449 -0.042691 1.5208e-05)
(11.1393 -0.037411 1.5387e-05)
(11.1382 -0.032946 1.7827e-05)
(11.1369 -0.03061 1.879e-05)
(11.1339 -0.029914 1.8526e-05)
(11.1326 -0.028065 1.8425e-05)
(11.1337 -0.025802 2.3664e-05)
(11.1347 -0.024508 2.4245e-05)
(10.7453 0.032005 2.4493e-06)
(9.5425 -0.042406 7.2393e-07)
(6.031 0.030933 1.212e-06)
(6.4956 -0.024886 2.5767e-06)
(9.2122 0.034043 6.1788e-06)
(10.7585 -0.0066433 1.4802e-05)
(11.1716 0.016942 5.9032e-05)
(11.1742 0.017741 5.8709e-05)
(11.1763 0.019774 5.4859e-05)
(11.1799 0.023029 5.5048e-05)
(11.1849 0.025845 5.5174e-05)
(11.1916 0.031283 5.5345e-05)
(11.1995 0.038283 5.5315e-05)
(11.2113 0.047668 5.5156e-05)
(11.2297 0.058404 5.5837e-05)
(11.2551 0.071264 5.6629e-05)
(11.2956 0.086105 5.768e-05)
(11.3635 0.099107 5.9342e-05)
(11.4601 0.093753 6.1713e-05)
(11.9233 1.4981 4.2653e-07)
(11.3739 -0.18526 0.0001951)
(11.4614 -0.086733 0.00021317)
(11.4738 -0.011437 0.00023008)
(11.4352 0.032676 0.00024675)
(11.3822 0.048174 0.00026066)
(11.3364 0.045854 0.00027488)
(11.3035 0.037734 0.00029055)
(11.2801 0.029231 0.00030733)
(11.2625 0.021549 0.00032494)
(11.2494 0.014661 0.0003438)
(11.2397 0.0091702 0.00036247)
(11.2325 0.0051885 0.00038095)
(11.227 0.0022639 0.00039925)
(11.2228 -0.00048011 0.00041739)
(11.2196 -0.0022347 0.00043531)
(11.2171 -0.0036389 0.00045322)
(10.0032 -0.018066 2.0473e-07)
(9.9996 -0.0197 2.1542e-07)
(9.9964 -0.017224 2.2537e-07)
(9.9943 -0.011535 2.3185e-07)
(9.9938 -0.0043379 2.3323e-07)
(9.9951 0.0022659 2.2877e-07)
(9.9975 0.0066236 2.2101e-07)
(10.0002 0.0078838 2.1273e-07)
(10.0025 0.0061635 4.3276e-05)
(10.0065 0.011624 6.3721e-05)
(10.014 0.02055 8.4444e-05)
(10.0275 0.03499 0.00010512)
(10.051 0.057334 0.00012588)
(10.0918 0.090813 0.00014725)
(10.1606 0.13952 0.00016952)
(10.2748 0.2038 0.00019312)
(10.4532 0.27322 0.00021819)
(10.7058 0.332 0.0002295)
(10.9849 0.3023 0.00025238)
(11.2266 0.21432 0.00025946)
(11.3604 0.097309 0.00026453)
(11.3844 0.0079476 0.00027238)
(11.3486 -0.027095 0.00028235)
(11.3062 -0.02804 0.00029469)
(11.2788 -0.02153 0.00030718)
(11.263 -0.016143 0.00032143)
(11.2523 -0.010477 0.00034001)
(11.2433 -0.004573 0.00035855)
(11.2368 0.0011731 0.00037699)
(11.2328 0.0057669 0.00039523)
(11.2304 0.0087061 0.00041338)
(11.2277 0.010424 0.00042792)
(11.226 0.012779 0.00044571)
(11.225 0.014809 0.0004633)
(11.2247 0.016318 0.00048091)
(11.2246 0.017138 0.00052082)
(11.1362 -0.024022 4.8375e-05)
(10.7462 0.032295 2.4176e-05)
(9.5441 -0.038225 2.2452e-05)
(6.0338 0.031802 2.2828e-05)
(6.5029 -0.025515 2.4216e-05)
(9.2253 0.032165 2.8063e-05)
(10.7589 -0.008206 3.6586e-05)
(11.1687 0.015736 8.3268e-05)
(11.215 -0.0049716 0.00049267)
(9.4008 0.11301 2.3049e-07)
(9.4212 -0.14429 2.1787e-07)
(9.484 -0.34544 2.1423e-07)
(9.5743 -0.55939 2.5764e-07)
(9.7202 -0.79837 2.8516e-07)
(10.0144 -0.87226 3.5547e-07)
(10.293 -0.84973 2.5548e-06)
(10.4857 -0.57487 2.9606e-05)
(10.5281 -0.76719 1.6229e-05)
(10.6763 -0.64316 2.9642e-05)
(10.742 -0.41504 8.5978e-05)
(10.7742 -0.25134 0.00025202)
(10.2302 -0.17381 0.00016756)
(10.1458 -0.12145 0.00014622)
(10.0905 -0.082937 0.00012548)
(10.054 -0.054579 0.00010565)
(10.0303 -0.035033 8.5324e-05)
(10.0151 -0.021774 6.4594e-05)
(10.006 -0.012638 4.3478e-05)
(11.0364 -0.24915 0.00022977)
(6.8186 1.8127 2.5929e-06)
(2.6924 1.2074 1.1365e-06)
(5.1556 1.954 1.8756e-06)
(8.7713 1.1942 3.0171e-06)
(11.2404 0.53995 5.1546e-06)
(10.9626 -0.47148 6.7748e-05)
(11.2481 -0.2967 0.00015833)
(10.6433 2.9532 3.8453e-07)
(11.4627 -0.40363 6.9764e-05)
(8.2311 1.249 2.2746e-06)
(10.9806 0.60703 3.72e-06)
(11.7264 -0.57863 1.991e-05)
(11.3977 -0.63385 3.2152e-05)
(11.1728 -0.53099 5.0052e-05)
(10.863 -0.71754 2.4519e-05)
(10.7001 -0.94525 1.1119e-05)
(10.3948 -1.141 1.6392e-06)
(10.0013 -1.2129 3.2039e-07)
(9.577 -1.1109 2.6685e-07)
(9.3098 -0.80872 2.4285e-07)
(9.1587 -0.46913 2.1477e-07)
(9.081 -0.1407 2.2183e-07)
(9.1196 0.2492 2.6791e-07)
(9.1655 0.68457 4.0134e-07)
(8.8647 3.3114 3.4536e-07)
(8.3602 2.2675 3.3517e-07)
(8.9831 1.1838 3.7802e-07)
(6.773 0.74029 1.1588e-06)
(10.311 0.76317 1.5271e-06)
(11.081 -0.82636 1.8199e-05)
(11.682 0.35709 2.4323e-06)
(12.1013 0.85977 9.5258e-07)
(11.3652 -0.93156 1.2662e-05)
(11.6935 -1.0001 8.1845e-06)
(10.9472 -1.1446 7.5414e-06)
(11.3093 -1.375 4.6762e-06)
(11.702 -1.5798 2.9119e-06)
(10.6327 -1.4911 1.0833e-06)
(11.073 -1.9355 7.0019e-07)
(8.7779 0.4553 2.7716e-07)
(10.0787 -1.7011 2.9295e-07)
(10.383 -2.3633 2.6861e-07)
(8.5812 -0.073965 2.2953e-07)
(8.6188 -0.61712 2.1755e-07)
(8.2315 0.90291 2.7464e-07)
(9.3889 -1.6284 2.5289e-07)
(8.8792 -1.2146 2.3334e-07)
(9.2442 -2.4226 2.4103e-07)
(7.7445 0.092751 2.2822e-07)
(7.8482 -0.8763 2.1839e-07)
(8.2707 -1.8538 2.2711e-07)
(8.7633 -3.9654 2.3012e-07)
(6.1526 0.46778 2.2695e-07)
(6.191 -1.5083 2.1865e-07)
(6.7871 -3.1576 2.2235e-07)
(10.0037 0.002365 4.3934e-05)
(10.0097 0.0043448 6.4971e-05)
(10.0206 0.0075975 8.5875e-05)
(10.0392 0.012897 0.00010648)
(10.07 0.020932 0.00012671)
(10.1201 0.032552 0.00014752)
(10.1997 0.04868 0.00016972)
(10.3198 0.068593 0.00019345)
(10.4895 0.088365 0.00021914)
(10.7106 0.10432 0.00024525)
(10.9509 0.098707 0.00027162)
(11.1617 0.075382 0.00029673)
(11.2963 0.04215 0.0003189)
(11.3461 0.014393 0.00033894)
(11.3382 0.0005973 0.00035782)
(11.3108 -0.0026434 0.00037541)
(11.2875 -0.0025949 0.00039301)
(11.2723 -0.0029177 0.00041107)
(11.2613 -0.0035938 0.00042901)
(11.2524 -0.0041848 0.00044677)
(11.2455 -0.0048368 0.00046443)
(11.2409 -0.0057578 0.00048196)
(11.2381 -0.0069778 0.00049939)
(11.2362 -0.0083201 0.00051665)
(11.2347 -0.0095222 0.0005337)
(11.2337 -0.01059 0.00055068)
(11.2334 -0.011701 0.00056749)
(11.2336 -0.012709 0.00060586)
(11.2347 -0.013554 0.0006011)
(11.2238 0.017781 0.00051648)
(11.1384 -0.023938 2.6179e-05)
(10.7445 0.032076 2.2168e-06)
(9.5435 -0.035551 5.1742e-07)
(6.0375 0.033103 9.0058e-07)
(6.5105 -0.025136 2.2585e-06)
(9.2282 0.030298 6.118e-06)
(10.7565 -0.0097801 1.4666e-05)
(11.1671 0.015357 6.1011e-05)
(11.2115 -0.0052878 0.0004888)
(11.2033 0.0066809 0.00059993)
(11.2057 0.0062086 0.00060455)
(11.2076 0.0058772 0.000566)
(11.2099 0.0056524 0.00054911)
(11.213 0.0055517 0.00053214)
(11.2172 0.0056417 0.00051508)
(11.2229 0.005869 0.00049786)
(11.2305 0.0063766 0.0004805)
(11.2408 0.0073395 0.00046298)
(11.2546 0.0087731 0.0004453)
(11.2727 0.010648 0.00042751)
(11.2963 0.012863 0.00041043)
(11.3271 0.014355 0.00039475)
(11.3642 0.013131 0.00037823)
(11.3988 0.0049944 0.00036161)
(11.4115 -0.013577 0.00034451)
(11.3752 -0.040487 0.00032572)
(11.2682 -0.068788 0.00030122)
(11.0828 -0.11491 0.00027593)
(10.8235 -0.061658 0.00024672)
(10.597 -0.062801 0.00020459)
(10.4206 -0.062426 0.00018025)
(10.2834 -0.053434 0.0001624)
(10.1833 -0.040747 0.00014421)
(10.1145 -0.029089 0.00012564)
(10.0683 -0.019746 0.00010638)
(10.0382 -0.012838 8.6329e-05)
(10.0191 -0.0080032 6.5686e-05)
(10.0075 -0.0045943 4.4539e-05)
(10.0017 -0.0021006 6.4043e-07)
(10.0013 -0.0058218 2.3508e-07)
(10.0007 -0.0083511 -2.1727e-05)
(9.9999 -0.0091158 -2.1732e-05)
(9.9992 -0.0080386 -2.1726e-05)
(9.9987 -0.0055041 -2.1722e-05)
(9.9986 -0.0022761 -2.1721e-05)
(9.9989 0.00073504 -2.166e-05)
(9.9994 0.0027643 -2.1606e-05)
(10 0.0034026 -2.1592e-05)
(10.0005 0.0026944 4.0046e-07)
(10.0008 0.0010165 7.0704e-07)
(6.3443 -4.7471 2.1974e-07)
(9.218 -6.6228 2.23e-07)
(12.3897 -5.984 2.3042e-07)
(13.5946 -4.9199 2.2996e-07)
(13.3254 -2.5415 3.0955e-07)
(10.8044 -1.9913 3.0884e-07)
(3.2778 -2.6539 5.456e-07)
(-2.4806 -1.5786 9.9278e-07)
(-2.7013 -0.50499 8.8007e-07)
(-5.0405 1.4258 8.6831e-07)
(9.7035 2.8646 3.1201e-07)
(12.7096 3.1548 2.619e-07)
(12.8073 5.3083 2.5806e-07)
(11.2156 6.314 2.5871e-07)
(5.1067 1.0502 2.2586e-07)
(5.1008 -2.0101 2.186e-07)
(5.9243 0.27191 2.4614e-06)
(12.3263 1.0476 4.3923e-07)
)
;

boundaryField
{
    bottom
    {
        type             symmetry;
    }
    inlet
    {
        type             fixedValue;
        value            uniform (10 0 0);
    }
    object
    {
        type             noSlip;
    }
    outlet
    {
        type             zeroGradient;
    }
    side1
    {
        type             empty;
    }
    side2
    {
        type             empty;
    }
    top
    {
        type             symmetry;
    }
}

// ************************************************************************* //
