/*--------------------------------*- C++ -*----------------------------------*\\
| =========                 |                                                 |
| \\      /  F ield         | OpenFOAM: The Open Source CFD Toolbox           |
|  \\    /   O peration     | Version:  v1706                                 |
|   \\  /    A nd           | Web:      www.OpenFOAM.com                      |
|    \\/     M anipulation  |                                                 |
\\*---------------------------------------------------------------------------*/
FoamFile
{
    version     2.0;
    format      ascii;
    class       surfaceScalarField;
    location    "0.6";
    object      mdot_f;
}
// * * * * * * * * * * * * * * * * * * * * * * * * * * * * * * * * * * * * * //

dimensions      [1 0 -1 0 0 0 0]


internalField   nonuniform List<scalar>
560
(
-0.00062273
-0.14015
-0.00093324
-0.14282
-0.0010542
-0.14566
-0.00096369
-0.14758
-0.00086016
-0.1486
-0.0007696
-0.14913
-0.00061128
-0.14942
-0.00041432
-0.14956
-0.00020646
-0.14963
-0.14966
-0.00041138
-0.13974
-0.0007187
-0.14253
-0.00091528
-0.14547
-0.0009505
-0.14755
-0.00088262
-0.14868
-0.00077546
-0.14924
-0.00061486
-0.14958
-0.00042107
-0.14976
-0.00021213
-0.14984
-0.14987
-0.0003823
-0.13936
-0.0006939
-0.14225
-0.00093126
-0.14526
-0.0010281
-0.14746
-0.00097893
-0.14875
-0.0008579
-0.14938
-0.00067577
-0.14976
-0.00046501
-0.14998
-0.00023762
-0.15008
-0.15011
-0.0005025
-0.13887
-0.00084705
-0.14192
-0.0010971
-0.14502
-0.0012213
-0.14735
-0.0011597
-0.14882
-0.0010073
-0.14954
-0.00079468
-0.14998
-0.00054227
-0.15023
-0.00027388
-0.15035
-0.15038
-0.00077083
-0.13812
-0.0011818
-0.1415
-0.0014126
-0.1448
-0.0015292
-0.14724
-0.001433
-0.1489
-0.0012322
-0.14974
-0.00096963
-0.15024
-0.00065815
-0.15053
-0.00033193
-0.15066
-0.15071
-0.0011806
-0.13695
-0.0016982
-0.14098
-0.0018767
-0.14462
-0.0019556
-0.14716
-0.0018217
-0.14902
-0.001546
-0.15001
-0.001202
-0.15058
-0.00081642
-0.15091
-0.0004124
-0.15106
-0.15111
-0.00168
-0.13527
-0.0023867
-0.14026
-0.0025382
-0.14445
-0.0025702
-0.14712
-0.0023701
-0.14921
-0.0019826
-0.15037
-0.0015198
-0.15102
-0.0010187
-0.15139
-0.00050804
-0.15156
-0.15161
-0.002218
-0.13304
-0.0034561
-0.13899
-0.0036708
-0.1442
-0.0035562
-0.1472
-0.0031587
-0.14959
-0.0025677
-0.15094
-0.00192
-0.15165
-0.0012618
-0.15202
-0.00062172
-0.15217
-0.15221
-0.003558
-0.12946
-0.0058908
-0.1366
-0.0058581
-0.1442
-0.0051372
-0.14788
-0.0042307
-0.15046
-0.0032624
-0.15187
-0.0023469
-0.15254
-0.0015084
-0.15283
-0.0007343
-0.15293
-0.15293
-0.0094719
-0.11996
-0.011058
-0.13496
-0.0093039
-0.14591
-0.0071439
-0.15
-0.0053636
-0.1522
-0.0039011
-0.15329
-0.0026982
-0.1537
-0.0016895
-0.15381
-0.00080882
-0.15378
-0.15373
0.020621
-0.14055
0.024729
-0.13901
0.025591
-0.14672
0.024346
-0.14872
0.021532
-0.14935
0.017878
-0.14961
0.013735
-0.14953
0.0092954
-0.14933
0.004688
-0.14914
-0.14902
0.012262
-0.15278
0.017266
-0.14397
0.018737
-0.14816
0.018216
-0.14816
0.016367
-0.14747
0.013713
-0.14692
0.010588
-0.14638
0.0071868
-0.14591
0.0036332
-0.14556
-0.14537
0.0071757
-0.15992
0.011547
-0.14829
0.012872
-0.14945
0.012697
-0.14795
0.011541
-0.14628
0.0097476
-0.1451
0.0075629
-0.14416
0.0051496
-0.14346
0.0026102
-0.14299
-0.14275
0.0036962
-0.16359
0.0069027
-0.15146
0.0077627
-0.15027
0.007704
-0.14786
0.0070543
-0.14561
0.0059904
-0.14401
0.0046638
-0.14281
0.0031835
-0.14196
0.0016183
-0.1414
-0.14112
0.00094075
-0.16451
0.0027853
-0.15328
0.0031178
-0.15058
0.0030701
-0.14779
0.0028189
-0.14533
0.002397
-0.14356
0.0018665
-0.14226
0.0012743
-0.14134
0.00065036
-0.14076
-0.14046
-0.0015483
-0.16295
-0.0011849
-0.15362
-0.0013404
-0.15041
-0.0013954
-0.14772
-0.0012942
-0.14541
-0.0011178
-0.14372
-0.00088445
-0.14248
-0.00061016
-0.1416
-0.00030736
-0.14104
-0.14076
-0.0040989
-0.15884
-0.005263
-0.15244
-0.0058817
-0.14978
-0.0059223
-0.14767
-0.0054595
-0.14587
-0.0046732
-0.1445
-0.003666
-0.14347
-0.0025139
-0.14274
-0.0012741
-0.14227
-0.14203
-0.006849
-0.15198
-0.0096478
-0.14964
-0.010818
-0.1486
-0.010804
-0.14767
-0.0098977
-0.14676
-0.0084154
-0.14597
-0.0065659
-0.14531
-0.0044851
-0.14481
-0.0022708
-0.14448
-0.1443
-0.010475
-0.1415
-0.015289
-0.14482
-0.016873
-0.14702
-0.016476
-0.14807
-0.014845
-0.14839
-0.012471
-0.14834
-0.0096495
-0.14813
-0.0065574
-0.1479
-0.0033109
-0.14772
-0.14761
-0.01924
-0.12226
-0.024545
-0.13952
-0.024965
-0.1466
-0.02325
-0.14978
-0.020398
-0.15125
-0.016868
-0.15186
-0.012924
-0.15207
-0.0087312
-0.15209
-0.0043943
-0.15205
-0.15201
0.011285
-0.13355
0.011819
-0.14006
0.010192
-0.14497
0.0082054
-0.1478
0.0063445
-0.14939
0.0047263
-0.15025
0.0033385
-0.15068
0.0021269
-0.15088
0.0010329
-0.15096
-0.15097
0.0055638
-0.13912
0.0074022
-0.1419
0.0072093
-0.14479
0.0062914
-0.14688
0.0051528
-0.14825
0.0039973
-0.1491
0.0029052
-0.14959
0.0018868
-0.14986
0.00092592
-0.15
-0.15005
0.0030637
-0.14218
0.0046518
-0.1435
0.0050034
-0.14515
0.0046772
-0.14656
0.0040276
-0.14761
0.0032419
-0.14832
0.0024179
-0.14877
0.0015983
-0.14905
0.0007928
-0.1492
-0.14926
0.001821
-0.14401
0.0029916
-0.14467
0.003456
-0.14562
0.0034131
-0.14653
0.0030651
-0.14726
0.0025474
-0.1478
0.0019434
-0.14818
0.0013049
-0.14841
0.00065355
-0.14855
-0.14861
0.001142
-0.14516
0.0019666
-0.14551
0.0023873
-0.14604
0.00246
-0.14661
0.0022847
-0.14709
0.0019496
-0.14747
0.0015173
-0.14775
0.001032
-0.14793
0.00052037
-0.14804
-0.14809
0.00074024
-0.1459
0.0013109
-0.14609
0.0016463
-0.14639
0.0017512
-0.14672
0.0016693
-0.14702
0.0014552
-0.14727
0.0011516
-0.14745
0.00079159
-0.14758
0.00040132
-0.14766
-0.14769
0.00048512
-0.14639
0.00087474
-0.14649
0.0011236
-0.14664
0.0012228
-0.14682
0.0011895
-0.14699
0.0010537
-0.14714
0.00084443
-0.14725
0.00058593
-0.14733
0.00029845
-0.14738
-0.1474
0.00031303
-0.14671
0.00057079
-0.14675
0.00074404
-0.14682
0.00082282
-0.14691
0.00081258
-0.14699
0.00072839
-0.14706
0.00058925
-0.14712
0.00041146
-0.14716
0.00021
-0.14718
-0.14719
0.00018897
-0.1469
0.00034654
-0.14692
0.0004562
-0.14694
0.00050953
-0.14697
0.00050809
-0.147
0.00045944
-0.14702
0.00037426
-0.14704
0.00026239
-0.14705
0.00013399
-0.14706
-0.14706
9.0284e-05
0.00016735
0.00022145
0.00024828
0.00024863
0.0002257
0.00018449
0.00012983
6.7014e-05
)
;

boundaryField
{
    bump
    {
        type             calculated;
        value            uniform 0;
    }
    outlet
    {
        type             calculated;
        value            nonuniform List<scalar>
10
(
0.14939
0.14935
0.14929
0.14918
0.14894
0.14841
0.14746
0.1458
0.14307
0.14067
)
;
    }
    inlet
    {
        type             calculated;
        value            nonuniform List<scalar>
10
(
-0.147
-0.147
-0.147
-0.147
-0.147
-0.147
-0.147
-0.147
-0.147
-0.147
)
;
    }
    side1
    {
        type             calculated;
        value            uniform 0;
    }
    side2
    {
        type             calculated;
        value            uniform 0;
    }
    symmetry
    {
        type             calculated;
        value            uniform 0;
    }
    top
    {
        type             calculated;
        value            uniform 0;
    }
}

// ************************************************************************* //
