/*--------------------------------*- C++ -*----------------------------------*\\
| =========                 |                                                 |
| \\      /  F ield         | OpenFOAM: The Open Source CFD Toolbox           |
|  \\    /   O peration     | Version:  v1706                                 |
|   \\  /    A nd           | Web:      www.OpenFOAM.com                      |
|    \\/     M anipulation  |                                                 |
\\*---------------------------------------------------------------------------*/
FoamFile
{
    version     2.0;
    format      ascii;
    class       volScalarField;
    location    "0.6";
    object      p;
}
// * * * * * * * * * * * * * * * * * * * * * * * * * * * * * * * * * * * * * //

dimensions      [1 -1 -2 0 0 0 0]


internalField   nonuniform List<scalar>
300
(
23.9327
14.1049
7.8796
-4.8125
-10.0443
-10.6136
-11.9563
-12.8086
-12.9615
-12.8833
37.6289
22.4643
11.248
-8.8476
-19.6952
-22.0466
-24.4982
-26.2993
-26.9828
-27.1396
35.8426
19.2869
8.3878
-14.5907
-30.0157
-33.9816
-36.96
-39.3055
-40.3475
-40.6699
17.2269
3.113
-0.77144
-21.018
-39.2263
-44.7772
-48.3372
-51.2404
-52.7777
-53.4237
-12.4174
-21.7648
-12.7156
-24.9084
-44.828
-52.9589
-57.9937
-62.0576
-64.4682
-65.6015
-29.9458
-39.1263
-18.4135
-21.5287
-44.6238
-57.9137
-66.2156
-72.4591
-76.2152
-78.0189
13.8531
-18.4749
-6.618
-9.4281
-40.3014
-62.1594
-75.34
-84.1745
-89.3641
-91.8802
180.6768
68.4399
22.2665
1.2134
-41.3027
-72.3812
-89.7626
-100.0386
-105.7183
-108.4303
449.8969
190.5009
33.6971
-16.6228
-63.8963
-97.0285
-113.757
-122.2712
-126.4456
-128.3914
506.4168
192.8062
-38.3771
-91.8886
-119.936
-140.1636
-148.2357
-150.5674
-150.9071
-151.1011
-190.4113
-80.6157
-214.9426
-216.9581
-200.5212
-195.0281
-188.2145
-181.3527
-176.4238
-174.2723
-651.3492
-321.6941
-359.9492
-321.0468
-272.0001
-244.3418
-223.7917
-208.6302
-198.9
-194.4568
-963.3327
-527.5343
-474.762
-403.6625
-330.2235
-284.2407
-251.6751
-229.2048
-215.2862
-208.8296
-1152.9763
-679.8453
-547.0232
-453.9828
-365.4177
-307.3255
-266.6617
-239.2259
-222.4785
-214.6609
-1230.7106
-774.4996
-576.028
-468.0051
-372.8967
-309.3194
-265.3543
-236.0992
-218.4209
-210.1567
-1180.198
-795.8752
-557.151
-442.0819
-350.0328
-288.4827
-246.6407
-219.128
-202.6514
-194.951
-946.1291
-702.9522
-473.3889
-370.2595
-295.3859
-245.4626
-211.8165
-189.7275
-176.5177
-170.2936
-457.4491
-443.2648
-306.381
-250.9011
-211.9253
-184.334
-164.672
-151.168
-142.8603
-138.7916
253.3436
-34.5281
-77.349
-103.708
-113.2262
-114.0154
-111.3298
-107.9787
-105.3621
-103.7831
797.8534
312.5977
115.6825
23.2917
-23.4995
-47.3413
-59.2594
-65.0386
-67.7127
-68.5455
500.4475
315.1025
174.2548
88.7974
36.4021
4.2895
-15.1181
-26.5856
-32.9795
-35.705
354.1962
273.7233
186.1044
119.2329
72.1183
39.9446
18.5818
4.9069
-3.1953
-6.857
270.0112
230.4016
177.855
130.1616
92.213
63.8425
43.579
29.8478
21.3786
17.4248
218.4538
196.9577
164.7249
131.6657
102.6668
79.2778
61.538
48.9561
40.9466
37.123
185.4013
172.7417
152.2283
129.3025
107.6063
88.9896
74.1519
63.2148
56.073
52.6099
163.5942
155.6037
141.9979
125.8347
109.6237
95.005
82.8669
73.6281
67.4651
64.437
149.0717
143.7039
134.2513
122.5211
110.2281
98.69
88.7877
81.0534
75.7961
73.1829
139.6255
135.7654
128.8094
119.9017
110.2523
100.9076
92.6734
86.105
81.5732
79.3003
134.0968
131.0559
125.4921
118.2077
110.1336
102.1413
94.9602
89.1422
85.0828
83.0283
131.8603
129.1584
124.1472
117.5144
110.0802
102.6436
95.8997
90.3952
86.5264
84.5345
)
;

boundaryField
{
    bump
    {
        type             zeroGradient;
    }
    outlet
    {
        type             fixedValue;
        value            uniform 0;
    }
    inlet
    {
        type             zeroGradient;
    }
    side1
    {
        type             empty;
    }
    side2
    {
        type             empty;
    }
    symmetry
    {
        type             symmetry;
    }
    top
    {
        type             symmetry;
    }
}

// ************************************************************************* //
