/*--------------------------------*- C++ -*----------------------------------*\\
| =========                 |                                                 |
| \\      /  F ield         | OpenFOAM: The Open Source CFD Toolbox           |
|  \\    /   O peration     | Version:  v1706                                 |
|   \\  /    A nd           | Web:      www.OpenFOAM.com                      |
|    \\/     M anipulation  |                                                 |
\\*---------------------------------------------------------------------------*/
FoamFile
{
    version     2.0;
    format      ascii;
    class       volVectorField;
    location    "0.6";
    object      U;
}
// * * * * * * * * * * * * * * * * * * * * * * * * * * * * * * * * * * * * * //

dimensions      [0 1 -1 0 0 0 0]


internalField   nonuniform List<vector>
300
(
(57.4157 -0.37547 0.013453)
(58.3977 -0.28787 0.0095449)
(59.5106 -0.48897 0.005545)
(60.1884 -0.42543 0.0034448)
(60.5756 -0.3068 0.0021577)
(60.7903 -0.37456 0.0013422)
(60.8894 -0.31384 0.00082025)
(60.9354 -0.22945 0.00059032)
(60.9605 -0.13575 0.0019906)
(60.974 -0.045767 0.0019923)
(57.0048 -0.36954 0.014024)
(58.1389 -0.27259 0.0099537)
(59.3799 -0.45447 0.0058623)
(60.2541 -0.45939 0.0036642)
(60.7102 -0.31025 0.0023178)
(60.9262 -0.37948 0.0014658)
(61.0495 -0.32344 0.00092108)
(61.1074 -0.23531 0.00067831)
(61.13 -0.13967 0.0020346)
(61.1369 -0.047104 0.0020397)
(56.8913 -0.40964 0.014344)
(58.0535 -0.33341 0.010137)
(59.3216 -0.49118 0.0059803)
(60.2525 -0.56129 0.0037035)
(60.7641 -0.35558 0.0023092)
(60.9992 -0.41085 0.0014278)
(61.1374 -0.35734 0.00086542)
(61.2079 -0.2586 0.00061337)
(61.2349 -0.15397 0.001926)
(61.2406 -0.052193 0.0019365)
(56.856 -0.48423 0.014632)
(58.0271 -0.44289 0.010313)
(59.2898 -0.57243 0.006118)
(60.2493 -0.72349 0.0037811)
(60.8199 -0.44983 0.0023506)
(61.0798 -0.46817 0.0014473)
(61.2319 -0.41226 0.00087261)
(61.3145 -0.29811 0.00061479)
(61.3469 -0.17585 0.0018844)
(61.3526 -0.059042 0.0019022)
(56.8681 -0.58869 0.014813)
(58.0491 -0.57982 0.010409)
(59.2799 -0.66849 0.0062018)
(60.2382 -0.93058 0.0038234)
(60.8663 -0.59468 0.0023684)
(61.1617 -0.55573 0.0014508)
(61.3328 -0.48889 0.00086932)
(61.4277 -0.35426 0.00060898)
(61.4683 -0.20869 0.0018365)
(61.4775 -0.069977 0.0018636)
(56.818 -0.72813 0.014891)
(58.0547 -0.73737 0.010431)
(59.2582 -0.75256 0.0062348)
(60.1976 -1.1665 0.0038324)
(60.8932 -0.79658 0.0023641)
(61.2432 -0.68374 0.0014397)
(61.4448 -0.59045 0.00085636)
(61.5588 -0.42806 0.00059623)
(61.6099 -0.2536 0.0017826)
(61.6225 -0.085234 0.0018206)
(56.3901 -0.93831 0.014879)
(57.8531 -0.96093 0.010388)
(59.1469 -0.831 0.0062232)
(60.1062 -1.4375 0.0038123)
(60.9042 -1.0762 0.0023408)
(61.3361 -0.87057 0.001416)
(61.582 -0.73008 0.00083524)
(61.7213 -0.52565 0.00057719)
(61.7841 -0.3096 0.0017235)
(61.8006 -0.10341 0.0017735)
(54.9429 -1.3432 0.01479)
(57.1188 -1.4674 0.010295)
(58.8888 -1.0359 0.0061769)
(60.0076 -1.8058 0.0037697)
(60.9552 -1.4723 0.002303)
(61.4909 -1.1367 0.001383)
(61.7808 -0.91272 0.00080805)
(61.9354 -0.64619 0.00055283)
(62.0034 -0.37712 0.00166)
(62.0219 -0.12528 0.0017228)
(52.0159 -2.2865 0.014644)
(55.7771 -2.8673 0.010175)
(58.6706 -1.7256 0.0061123)
(60.1091 -2.3887 0.0037148)
(61.1846 -2.0129 0.0022569)
(61.7873 -1.4812 0.0013446)
(62.0857 -1.1211 0.00077734)
(62.2268 -0.77201 0.00052453)
(62.2808 -0.44547 0.001593)
(62.2915 -0.14717 0.0016687)
(49.6949 -4.2902 0.014491)
(54.9606 -6.0491 0.010087)
(59.1377 -3.297 0.0060586)
(60.7693 -3.2008 0.0036613)
(61.7592 -2.6112 0.0022101)
(62.2882 -1.8314 0.0013055)
(62.5165 -1.3068 0.00074627)
(62.5989 -0.87112 0.00049443)
(62.6129 -0.49421 0.0015238)
(62.6042 -0.16184 0.0016118)
(55.0024 -6.7866 0.014338)
(56.8233 -10.3467 0.010003)
(60.8129 -5.3329 0.0059813)
(62.0935 -3.8766 0.0035827)
(62.6883 -3.003 0.0021436)
(62.9722 -2.0406 0.0012542)
(63.0421 -1.3921 0.00070924)
(63.0199 -0.90195 0.00046054)
(62.9724 -0.50437 0.0014515)
(62.9366 -0.1643 0.0015533)
(63.6508 -5.9692 0.013605)
(61.0164 -10.9682 0.0087394)
(63.5541 -5.4177 0.0048842)
(63.9114 -3.6373 0.0028771)
(63.8572 -2.7916 0.0017113)
(63.7609 -1.8469 0.00099965)
(63.6061 -1.2378 0.0005701)
(63.4483 -0.78948 0.00039836)
(63.3255 -0.4384 0.0014292)
(63.2572 -0.14049 0.0014906)
(69.3379 -3.7443 0.012233)
(64.5996 -9.2322 0.0073552)
(65.7685 -4.6763 0.0038858)
(65.3891 -2.8525 0.0022827)
(64.8341 -2.2243 0.0013553)
(64.424 -1.4399 0.00079308)
(64.0775 -0.95021 0.00045912)
(63.805 -0.59504 0.00034958)
(63.6177 -0.32727 0.0013909)
(63.5198 -0.10248 0.0014169)
(72.9034 -0.92941 0.010641)
(67.412 -6.0198 0.0059507)
(67.3681 -3.3316 0.003062)
(66.4612 -1.6651 0.001834)
(65.5518 -1.3656 0.0011079)
(64.9036 -0.84724 0.00066229)
(64.4079 -0.54288 0.00039487)
(64.0464 -0.32807 0.00032588)
(63.8094 -0.17681 0.0013433)
(63.6892 -0.052781 0.0013383)
(74.6791 2.0425 0.0097809)
(69.2195 -1.9759 0.0050966)
(68.2335 -1.5262 0.0026636)
(67.0151 -0.244 0.0016337)
(65.9139 -0.31324 0.0010065)
(65.127 -0.12797 0.00062061)
(64.5448 -0.051628 0.00038371)
(64.1327 -0.010254 0.00033085)
(63.8685 0.00076493 0.0012902)
(63.7363 0.0044805 0.001258)
(74.7535 4.8587 0.0096101)
(69.8887 2.3564 0.0049137)
(68.3241 0.63478 0.0026392)
(66.9937 1.2572 0.0016481)
(65.8662 0.82204 0.0010274)
(65.0516 0.6435 0.00064526)
(64.4573 0.47265 0.0004065)
(64.0418 0.3262 0.00035066)
(63.7777 0.18795 0.0012262)
(63.6463 0.064315 0.0011763)
(72.9716 7.2418 0.0089153)
(69.1838 6.4018 0.0046761)
(67.5685 2.9874 0.0024783)
(66.359 2.7031 0.0015414)
(65.3845 1.9095 0.00096625)
(64.6675 1.3802 0.00060962)
(64.1429 0.96961 0.00038574)
(63.7746 0.64325 0.00033641)
(63.5398 0.36402 0.001135)
(63.4227 0.12086 0.0010879)
(68.7887 8.7885 0.0064738)
(66.7934 9.5521 0.0035848)
(65.85 5.1537 0.0017893)
(65.1101 3.9239 0.0010911)
(64.4954 2.789 0.00069657)
(64.0096 1.9775 0.00044527)
(63.6343 1.372 0.00028342)
(63.3597 0.90075 0.00026211)
(63.1798 0.50781 0.0010184)
(63.0881 0.1675 0.00099194)
(61.7347 8.8944 0.0030589)
(62.6551 10.8488 0.0019408)
(63.2644 6.4968 0.00089101)
(63.4055 4.6184 0.00054945)
(63.3338 3.2876 0.00038241)
(63.1768 2.3332 0.00025969)
(63.0028 1.6224 0.00016883)
(62.8501 1.0668 0.00017193)
(62.7402 0.60311 0.00090128)
(62.6803 0.19897 0.00089782)
(53.8255 6.83 0.0010165)
(58.2672 9.1391 0.00089797)
(60.6666 6.2713 0.00031712)
(61.7239 4.5189 0.00018791)
(62.1695 3.3066 0.00014681)
(62.324 2.4015 0.00010818)
(62.3435 1.6984 7.2572e-05)
(62.3104 1.1295 8.3805e-05)
(62.2698 0.64379 0.00079363)
(62.2422 0.21258 0.0008098)
(52.472 2.6473 0.00069646)
(56.9799 4.9194 0.00073298)
(59.399 4.6631 0.00014581)
(60.6529 3.8009 3.9215e-05)
(61.3002 2.9693 2.3658e-05)
(61.6176 2.2468 1.72e-05)
(61.7576 1.6317 1.1301e-05)
(61.8074 1.1037 6.9689e-06)
(61.8175 0.63529 0.00070055)
(61.8141 0.20848 0.0007317)
(55.8411 1.2531 0.00065619)
(57.6197 2.7697 0.00065348)
(59.114 3.0838 6.9685e-05)
(60.0927 2.807 5.5304e-06)
(60.6976 2.3545 5.4089e-07)
(61.0526 1.8706 2.1848e-07)
(61.2489 1.4057 1.7797e-07)
(61.3499 0.97345 1.6162e-07)
(61.3967 0.56878 0.00063418)
(61.413 0.18768 0.00065944)
(57.5021 0.6725 0.00058459)
(58.2869 1.6421 0.00058325)
(59.1694 2.0327 3.9765e-05)
(59.8641 2.0169 2.2791e-06)
(60.3512 1.7988 2.4331e-07)
(60.6699 1.4934 1.2603e-07)
(60.8659 1.1582 9.8639e-08)
(60.9799 0.81967 8.4985e-08)
(61.0403 0.48584 0.00056922)
(61.0647 0.16123 0.00058658)
(58.4581 0.39315 0.00051225)
(58.8384 1.0193 0.00051156)
(59.3453 1.3543 2.2258e-05)
(59.8043 1.4318 9.3446e-07)
(60.1609 1.3418 1.2469e-07)
(60.4148 1.1568 7.0815e-08)
(60.5833 0.92228 4.7379e-08)
(60.6883 0.66532 3.4613e-08)
(60.7478 0.39947 0.00050217)
(60.7736 0.1333 0.00051349)
(59.0447 0.24387 0.00043952)
(59.2402 0.65553 0.00043916)
(59.5301 0.91254 1.2141e-05)
(59.8201 1.0102 3.9519e-07)
(60.0639 0.98399 7.4709e-08)
(60.2494 0.87465 3.9244e-08)
(60.38 0.7139 1.6948e-08)
(60.4652 0.5236 4.0925e-09)
(60.5156 0.31765 0.00043331)
(60.5383 0.10641 0.00044026)
(59.4206 0.1569 0.00036655)
(59.5239 0.43096 0.00036637)
(59.6874 0.61854 6.3536e-06)
(59.8628 0.70777 1.8598e-07)
(60.0192 0.70982 5.3364e-08)
(60.1444 0.6463 2.2873e-08)
(60.2365 0.53779 7.7164e-10)
(60.299 0.39998 -1.2668e-08)
(60.3369 0.24476 0.00036299)
(60.3541 0.082268 0.00036696)
(59.6673 0.10227 0.00029344)
(59.7212 0.28481 0.00029335)
(59.8096 0.41715 3.115e-06)
(59.9091 0.48844 1.0944e-07)
(60.0018 0.50064 4.5019e-08)
(60.0785 0.46433 1.5665e-08)
(60.137 0.39207 -6.6061e-09)
(60.1778 0.29488 -2.0832e-08)
(60.2031 0.18189 0.00029155)
(60.2146 0.061349 0.00029361)
(59.8295 0.065652 0.00022023)
(59.8555 0.1845 0.00022018)
(59.8989 0.27382 1.3827e-06)
(59.9491 0.32569 8.4506e-08)
(59.9973 0.33915 4.2602e-08)
(60.0383 0.31891 1.333e-08)
(60.0701 0.27223 -9.2624e-09)
(60.0927 0.20644 -2.431e-08)
(60.1069 0.12806 0.00021931)
(60.1134 0.043305 0.00022023)
(59.9312 0.039332 0.00014693)
(59.9415 0.11118 0.00014691)
(59.9585 0.16646 5.3629e-07)
(59.9785 0.20003 7.8256e-08)
(59.998 0.21045 4.2579e-08)
(60.0149 0.1998 1.3108e-08)
(60.0281 0.17196 -9.8614e-09)
(60.0377 0.13117 -2.5673e-08)
(60.0436 0.081713 0.00014651)
(60.0461 0.02771 0.00014683)
(59.9845 0.018449 5.8418e-08)
(59.9869 0.052657 4.6028e-08)
(59.9907 0.079439 -7.3304e-05)
(59.9951 0.096017 -7.3408e-05)
(59.9995 0.10159 -7.3429e-05)
(60.0033 0.096982 -7.3447e-05)
(60.0063 0.083879 -7.3462e-05)
(60.0086 0.064264 -7.3472e-05)
(60.0099 0.040276 -9.5903e-08)
(60.0103 0.013708 -3.3935e-08)
)
;

boundaryField
{
    bump
    {
        type             noSlip;
    }
    outlet
    {
        type             zeroGradient;
    }
    inlet
    {
        type             fixedValue;
        value            uniform (60 0 0);
    }
    side1
    {
        type             empty;
    }
    side2
    {
        type             empty;
    }
    symmetry
    {
        type             symmetry;
    }
    top
    {
        type             symmetry;
    }
}

// ************************************************************************* //
