/*--------------------------------*- C++ -*----------------------------------*\\
| =========                 |                                                 |
| \\      /  F ield         | OpenFOAM: The Open Source CFD Toolbox           |
|  \\    /   O peration     | Version:  v1706                                 |
|   \\  /    A nd           | Web:      www.OpenFOAM.com                      |
|    \\/     M anipulation  |                                                 |
\\*---------------------------------------------------------------------------*/
FoamFile
{
    version     2.0;
    format      ascii;
    class       volScalarField;
    location    "20";
    object      phi;
}
// * * * * * * * * * * * * * * * * * * * * * * * * * * * * * * * * * * * * * //

dimensions      [0 0 0 0 0 0 0]


internalField   nonuniform List<scalar>
400
(
0.66667
0.26667
0.08
0.010667
-0.0074667
-0.0081066
-0.0049921
-0.0023722
-0.00089962
-0.00024473
-1.6754e-05
3.6976e-05
3.0778e-05
2.0195e-05
6.3275e-06
5.0263e-06
-1.0133e-06
1.1836e-06
-8.1611e-07
-4.5465e-09
1.0303
0.84848
0.5697
0.32377
0.15705
0.063146
0.018457
0.0010555
-0.0036624
-0.0036273
-0.0024174
-0.0013259
-0.00061883
-0.00025148
-7.389e-05
-1.5792e-05
9.2427e-06
7.5455e-06
6.2114e-06
2.8369e-06
1.0413
1.0601
0.95518
0.75619
0.53054
0.33251
0.18643
0.092554
0.039313
0.012795
0.0015606
-0.0020436
-0.0024502
-0.0018272
-0.0011247
-0.00059141
-0.0002774
-0.00011066
-3.2685e-05
4.347e-06
1.0123
1.0572
1.076
1.0216
0.88733
0.70248
0.50805
0.33651
0.2041
0.11273
0.055816
0.023794
0.0077381
0.0007929
-0.0014942
-0.0017723
-0.001367
-0.00087004
-0.00048325
-0.00016596
0.27343
0.65588
0.89432
1.0192
1.0427
0.97559
0.84057
0.66965
0.4948
0.33969
0.21662
0.12788
0.069228
0.033687
0.014015
0.0042487
8.6848e-05
-0.0012388
-0.0013304
-0.00088741
0.0074055
0.18227
0.43829
0.68857
0.87948
0.98428
0.99661
0.92738
0.80011
0.64356
0.48434
0.34169
0.22601
0.13985
0.080477
0.042545
0.020125
0.0079879
0.0020839
-0.00098628
-0.022165
-0.016495
0.085692
0.27262
0.49831
0.71142
0.87118
0.95406
0.95507
0.88523
0.76582
0.62167
0.47517
0.34263
0.23318
0.14957
0.090076
0.050518
0.025941
0.0073621
-0.0087331
-0.037287
-0.041817
0.015771
0.14706
0.33404
0.5407
0.72737
0.86198
0.92649
0.91855
0.84893
0.73655
0.60281
0.46684
0.34277
0.23875
0.1576
0.098278
0.043573
-0.0011607
-0.016029
-0.042097
-0.057138
-0.031441
0.054167
0.19865
0.38181
0.57222
0.73721
0.85129
0.9011
0.88637
0.81748
0.71126
0.58631
0.4592
0.34226
0.24288
0.13427
0.00037188
-0.0025678
-0.016428
-0.04118
-0.063267
-0.060129
-0.011178
0.0923
0.24307
0.42027
0.59584
0.74241
0.83961
0.87769
0.85785
0.78999
0.68909
0.57145
0.45163
0.29431
0.00024072
0.00090724
-0.0018712
-0.013818
-0.036492
-0.06211
-0.074139
-0.053502
0.013375
0.12864
0.28162
0.45157
0.61349
0.74424
0.82746
0.85606
0.83219
0.76519
0.66856
0.50306
5.3728e-05
0.00074825
0.0016468
-0.00026814
-0.0097939
-0.029568
-0.055817
-0.077075
-0.077177
-0.040987
0.039666
0.16258
0.31508
0.4772
0.62658
0.74352
0.81475
0.83515
0.80755
0.69778
-2.3138e-06
0.00022906
0.0011442
0.0023819
0.0015657
-0.0053796
-0.021697
-0.046406
-0.072209
-0.086391
-0.074401
-0.02485
0.066315
0.19385
0.34405
0.49793
0.63548
0.73979
0.80001
0.79873
-5.7866e-06
1.2434e-05
0.00033754
0.0013863
0.0029403
0.0032018
-0.0012515
-0.013881
-0.035583
-0.062383
-0.085017
-0.090818
-0.067382
-0.0066162
0.092305
0.22205
0.36847
0.51363
0.63949
0.75454
-1.8158e-06
-2.2181e-05
3.965e-06
0.00035927
0.0014524
0.0032302
0.0044056
0.0021822
-0.0068282
-0.024681
-0.049941
-0.076517
-0.094249
-0.091282
-0.057445
0.012521
0.11696
0.24708
0.38848
0.57618
-2.1566e-07
-1.1242e-05
-4.6059e-05
-3.2205e-05
0.00029949
0.0013546
0.0032329
0.0050864
0.0047216
-0.0009724
-0.014667
-0.036743
-0.063807
-0.08838
-0.10012
-0.088335
-0.044929
0.03297
0.14159
0.33261
1.5939e-07
-2.5579e-06
-2.2918e-05
-7.4496e-05
-8.8728e-05
0.00017996
0.0011279
0.0029805
0.0052551
0.0063179
0.0034781
-0.0061371
-0.024098
-0.049144
-0.076314
-0.097249
-0.10177
-0.080358
-0.026969
0.11101
2.0669e-08
2.8694e-07
-5.0315e-06
-3.3759e-05
-0.000102
-0.00015327
2.8276e-05
0.00081841
0.002532
0.0049855
0.0070476
0.0065212
0.00063401
-0.012848
-0.034208
-0.060606
-0.085705
-0.10044
-0.094978
-0.029254
3.2371e-08
3.4819e-07
7.4412e-07
-6.3183e-06
-4.1063e-05
-0.00012334
-0.00021334
-0.00012958
0.00047416
0.0019654
0.0043903
0.0070512
0.0082618
0.005552
-0.0035534
-0.020308
-0.043449
-0.06838
-0.087401
-0.078224
-8.4789e-09
1.2267e-07
9.8452e-07
2.8652e-06
-8.5121e-08
-2.7885e-05
-0.00011134
-0.00025516
-0.00036603
-0.00018899
0.00066554
0.0025347
0.0053688
0.0083813
0.009904
0.0076678
-0.00038716
-0.014906
-0.033981
-0.053241
)
;

boundaryField
{
    inlet1
    {
        type             fixedValue;
        value            uniform 1;
    }
    inlet2
    {
        type             fixedValue;
        value            uniform 0;
    }
    outlet
    {
        type             zeroGradient;
    }
    frontAndBack
    {
        type             empty;
    }
}

// ************************************************************************* //
