/*--------------------------------*- C++ -*----------------------------------*\\
| =========                 |                                                 |
| \\      /  F ield         | OpenFOAM: The Open Source CFD Toolbox           |
|  \\    /   O peration     | Version:  v1706                                 |
|   \\  /    A nd           | Web:      www.OpenFOAM.com                      |
|    \\/     M anipulation  |                                                 |
\\*---------------------------------------------------------------------------*/
FoamFile
{
    version     2.0;
    format      ascii;
    class       surfaceScalarField;
    location    "1";
    object      mdot_f;
}
// * * * * * * * * * * * * * * * * * * * * * * * * * * * * * * * * * * * * * //

dimensions      [1 0 -1 0 0 0 0]


internalField   nonuniform List<scalar>
13482
(
-5.0618e-07
-3.3312e-07
5.6844e-07
2.7086e-07
-6.1334e-10
-5.0738e-07
7.1586e-07
-7.1648e-07
2.1547e-07
1.6397e-07
1.8437e-08
-1.36e-08
-4.8366e-09
-9.4744e-06
4.3894e-06
5.1034e-06
5.9473e-06
-5.9609e-06
-3.4115e-05
2.6034e-05
1.4025e-05
-6.9647e-06
-1.1156e-05
1.2158e-05
-6.5272e-05
2.4176e-05
1.1712e-05
4.8425e-06
-5.4673e-06
-4.8237e-06
1.0252e-05
3.8564e-08
-5.4766e-06
2.0827e-08
-6.6388e-06
-7.5595e-06
8.7217e-06
-5.8296e-05
3.3795e-05
1.7876e-05
-7.2878e-06
-2.6109e-07
-7.4084e-06
-5.8167e-05
1.2119e-05
1.6871e-05
-5.07e-08
-1.5038e-05
1.2438e-05
2.6511e-06
-4.1632e-08
-4.1345e-09
-2.504e-05
2.2135e-05
-3.0446e-06
-2.9386e-05
-3.0821e-06
-4.1149e-07
1.9336e-07
2.1813e-07
7.2913e-05
9.1037e-05
-0.00016436
0.0001128
6.7003e-05
-0.00010685
-8.6467e-08
9.8765e-05
1.4125e-05
1.0832e-07
-5.6393e-07
5.6367e-07
2.5903e-10
3.4698e-06
-9.7342e-07
-3.0616e-06
2.1862e-06
1.827e-06
5.1194e-06
1.2144e-06
-4.1504e-06
1.1961e-06
-2.4091e-07
8.6939e-07
2.5533e-06
3.7494e-06
-2.8423e-06
2.6e-06
-5.7098e-06
5.952e-06
1.8561e-06
-8.7299e-06
4.0313e-06
-4.9883e-08
-3.0152e-06
5.6644e-06
-1.9824e-06
4.2712e-06
-2.3386e-06
-3.3544e-06
3.2265e-06
2.6402e-06
2.7366e-05
-2.4867e-05
-5.1399e-06
4.8609e-05
-2.8084e-05
-8.4151e-06
3.7205e-05
1.9822e-05
8.3669e-06
1.0605e-05
7.2703e-06
5.3695e-06
-1.4278e-05
1.6381e-06
3.5048e-06
3.7623e-06
-1.857e-08
2.5282e-06
1.0944e-05
-2.566e-05
1.2188e-05
8.3142e-09
5.9764e-06
4.1074e-10
7.9145e-10
2.026e-08
-3.923e-06
1.4805e-05
2.8741e-09
-2.1416e-05
1.0853e-06
5.7814e-06
1.2789e-05
5.1078e-06
-2.3678e-05
5.6981e-06
1.0002e-07
-1.7053e-06
7.3876e-06
1.5892e-08
1.2632e-05
-1.479e-06
3.5808e-08
1.7146e-05
-2.0329e-05
3.147e-06
1.4621e-08
2.589e-09
1.2259e-08
2.3615e-09
3.5544e-06
1.3587e-05
4.5882e-06
1.8201e-06
-7.1111e-06
7.0283e-07
2.9257e-06
-4.6043e-06
6.2644e-06
1.7166e-06
1.8491e-06
-1.7469e-06
-4.1842e-07
5.0572e-06
7.7292e-06
9.1969e-06
-1.588e-05
-1.0463e-06
1.5042e-06
3.4437e-07
5.8776e-06
3.5835e-06
-1.1732e-05
7.8709e-06
-7.4484e-07
-1.1238e-05
3.0877e-06
-4.066e-07
-1.379e-05
2.957e-06
-2.0024e-05
3.7305e-06
1.9014e-06
-1.9017e-06
2.2884e-10
-1.1345e-06
2.4647e-06
5.5242e-07
8.3491e-06
-8.9471e-06
-1.3155e-06
5.1771e-06
1.9879e-06
-2.9659e-07
3.1614e-06
-4.0944e-07
-5.0101e-07
4.5926e-07
-2.5705e-07
-5.0044e-07
-0.00010079
-6.307e-06
2.2972e-05
8.4127e-05
-3.722e-05
3.4376e-06
-2.1179e-05
1.235e-05
2.5277e-06
-2.6672e-05
-3.1716e-05
-5.7124e-05
2.3436e-05
4.3061e-06
-5.4561e-05
-2.9217e-05
3.2301e-06
3.2574e-05
-1.1094e-05
-3.2847e-07
1.1422e-05
-4.5783e-05
-1.9846e-05
-4.2126e-07
9.3257e-08
-1.3621e-05
3.3019e-08
1.3167e-05
1.2675e-05
1.4306e-05
-2.6567e-06
5.3098e-07
-1.6563e-06
1.2218e-05
3.7393e-06
2.0473e-05
-8.5073e-07
-2.2282e-05
1.8808e-06
1.6908e-05
-5.7081e-06
-7.7044e-07
1.6169e-06
4.8616e-06
-1.2074e-07
-5.0675e-06
2.3845e-06
9.0484e-06
8.6293e-06
4.2278e-06
-8.1761e-06
-4.6811e-06
1.1575e-05
7.0878e-07
-3.6617e-06
5.0762e-06
-1.1575e-06
3.0569e-07
-4.3417e-06
6.6769e-06
2.7376e-06
7.6911e-06
-4.6463e-07
-4.7022e-07
2.0919e-07
5.8958e-05
2.6113e-05
-8.554e-05
4.4328e-05
-4.3484e-05
1.3424e-05
4.3442e-05
-3.0698e-05
1.3382e-05
6.6689e-08
-1.87e-05
7.2257e-06
2.9882e-05
-3.5355e-06
2.5894e-06
3.9415e-06
3.1183e-06
-7.7774e-06
-7.7887e-06
-1.0097e-05
-9.3101e-07
3.7012e-07
1.0658e-05
-3.0586e-06
-1.0879e-05
3.8144e-06
6.744e-06
-6.9293e-06
-2.8808e-06
4.5374e-06
1.2494e-06
-2.8917e-06
-2.707e-06
1.3476e-08
5.5852e-06
-3.4186e-05
1.8023e-05
1.3261e-05
9.7055e-06
4.8945e-06
-1.7314e-05
3.3088e-05
-5.7608e-05
-6.3486e-06
4.2028e-06
3.2298e-08
2.1136e-06
1.8539e-06
-7.8629e-06
3.745e-06
2.6726e-06
-4.5646e-06
-1.747e-06
7.6098e-07
4.7264e-06
8.1151e-07
1.6407e-06
-1.2937e-07
-6.5617e-06
2.0012e-06
4.6898e-06
-7.3333e-06
1.4333e-06
5.7535e-06
-9.365e-06
4.0592e-06
-1.2628e-06
1.3777e-06
-1.8764e-05
8.0113e-06
-1.4742e-05
8.7637e-06
-2.791e-05
7.6522e-07
1.2396e-05
2.0932e-05
-2.6749e-05
-2.2121e-05
2.4493e-06
-7.8017e-09
1.1612e-07
1.5272e-05
-1.9724e-05
4.4437e-06
2.2817e-08
1.8415e-05
-3.1612e-06
8.9187e-06
-1.1215e-07
-8.779e-06
-2.1811e-06
5.8542e-06
5.2488e-06
8.1018e-06
8.1391e-06
6.984e-09
5.3259e-05
2.579e-05
1.1633e-05
2.8451e-05
-7.0061e-06
5.5538e-05
-9.5783e-06
-3.4332e-05
1.2006e-06
2.1004e-05
6.244e-06
-4.6027e-05
3.1603e-05
1.5621e-05
2.7667e-05
-1.8158e-05
-2.1102e-07
2.0998e-07
1.0314e-09
-2.6199e-06
3.0628e-06
-6.5981e-07
-9.3872e-07
-7.7466e-07
1.9183e-06
3.1288e-06
-6.7355e-06
1.2793e-06
-1.7289e-06
3.4934e-06
2.2261e-09
6.3109e-08
1.2085e-06
1.5606e-09
3.5683e-06
1.6876e-06
1.5188e-06
-6.7746e-06
1.9856e-06
1.0084e-06
3.022e-07
-1.3106e-06
2.4851e-06
-3.3525e-06
2.4066e-06
-1.417e-06
2.3628e-06
2.6987e-06
2.6324e-06
1.3431e-06
2.6511e-06
4.2239e-08
4.2614e-08
2.3106e-06
3.0367e-06
1.0735e-06
3.9621e-06
-1.0313e-06
-8.7714e-08
-7.0555e-07
1.073e-06
-3.1806e-06
4.7004e-06
-1.5199e-06
2.5315e-06
-2.0599e-08
-5.6928e-06
5.4226e-06
1.7656e-06
6.069e-06
9.5996e-06
-1.0246e-05
-1.7479e-06
8.1592e-06
-3.4121e-07
1.8002e-08
4.7655e-08
-2.9653e-08
1.1481e-05
1.1751e-06
-4.4968e-06
5.3705e-06
6.1588e-06
3.1886e-08
-9.0679e-08
2.2309e-09
-1.1921e-05
-7.1064e-07
2.2786e-05
-1.0154e-05
-6.6978e-06
3.4227e-05
-3.945e-05
-1.6343e-05
-7.5497e-06
2.3182e-05
2.3099e-05
-4.6136e-05
2.2446e-05
-3.4393e-06
3.7801e-06
-3.6878e-06
-1.2458e-05
3.8591e-05
-1.2725e-05
1.9351e-05
-1.0314e-05
-1.6524e-05
3.588e-07
-2.9968e-05
5.1739e-05
-5.7787e-06
5.8401e-06
-6.1385e-08
1.3277e-06
-1.4568e-07
-6.9651e-06
6.0266e-06
-7.2135e-07
-4.0055e-06
9.0152e-06
2.8201e-06
1.2266e-06
-2.6156e-06
2.4518e-07
1.1439e-06
-8.744e-07
5.5042e-07
1.5436e-06
-2.2375e-06
7.6545e-07
5.9539e-07
-3.4296e-06
-1.4421e-06
9.28e-09
2.7618e-06
-2.1464e-06
-6.247e-07
3.4347e-09
9.118e-10
8.4947e-10
7.9665e-07
-8.5271e-07
5.521e-08
2.0304e-09
-6.3428e-10
6.6056e-07
-8.0674e-07
1.4682e-07
-2.8978e-10
1.8529e-09
-4.7724e-08
5.4467e-08
-8.5963e-09
-5.0326e-10
2.5068e-07
3.5675e-07
1.3126e-07
-1.4803e-07
-2.7306e-07
2.1666e-06
1.12e-05
4.1834e-05
-6.6744e-05
1.371e-05
2.1389e-09
3.5354e-05
-5.8815e-05
-2.7061e-06
-9.3239e-06
7.4114e-06
4.6186e-06
-7.4957e-06
3.1316e-06
1.6551e-06
-4.9354e-06
-5.5623e-06
1.1705e-06
-4.8259e-06
3.9777e-06
-4.0901e-06
1.6828e-05
-1.1034e-06
-2.0553e-05
-2.5408e-06
4.0974e-07
-3.933e-06
1.5552e-06
3.6692e-06
-3.0622e-06
-2.1622e-06
1.5276e-06
5.175e-09
-1.6743e-06
3.1912e-06
1.0684e-08
1.7628e-06
1.9308e-07
-1.2524e-06
-1.335e-06
3.4633e-06
-8.7587e-07
-2.4081e-06
3.6478e-06
-2.492e-06
-1.4879e-06
-2.2228e-06
2.3758e-06
-5.0051e-06
1.1088e-06
5.1992e-06
-1.3117e-06
-3.0559e-06
-8.3158e-07
-1.1162e-06
4.0911e-06
5.7193e-06
-2.2172e-06
-4.815e-06
1.247e-06
-4.0767e-06
-3.9859e-06
2.1764e-07
-2.1768e-07
3.688e-11
-8.29e-07
3.8216e-07
6.6358e-07
-7.3542e-07
4.5845e-07
-5.5062e-07
-4.4769e-07
-5.0496e-07
9.1432e-07
-8.8831e-08
8.8227e-08
-9.1371e-07
-1.9461e-07
-2.3383e-07
1.3429e-06
8.7981e-08
-1.3563e-07
-1.4657e-07
-5.218e-11
2.2676e-06
-1.6738e-06
-1.4759e-06
8.8217e-07
-2.5734e-06
1.3547e-06
3.4871e-06
-2.0385e-06
-5.7414e-07
3.979e-08
-2.4466e-06
-1.2647e-06
-7.2004e-08
-2.7293e-06
2.0566e-06
7.4471e-07
-2.7942e-06
6.0413e-07
2.1173e-06
-1.231e-06
5.3411e-07
-2.0978e-06
-3.3924e-06
-5.697e-07
-1.7856e-05
5.8194e-05
-3.7709e-05
-2.6294e-06
5.8299e-05
-5.4008e-05
-2.2149e-05
-4.084e-05
4.47e-05
5.4332e-05
-1.1414e-06
1.86e-05
2.534e-05
4.7484e-05
-2.337e-05
-4.9455e-05
-2.9161e-05
4.9291e-07
1.078e-05
-1.0059e-06
4.4586e-07
-5.9282e-06
-4.383e-06
9.8653e-06
3.1377e-07
1.2865e-07
-9.3639e-06
-2.1083e-06
1.1786e-05
-1.4026e-05
-1.2744e-06
2.394e-07
7.7832e-07
-1.8029e-07
-8.3743e-07
1.8248e-06
5.1799e-08
-1.6377e-06
1.8606e-06
-3.5532e-07
3.1917e-07
-6.7984e-07
1.4354e-06
1.1053e-06
9.6383e-08
2.345e-09
-8.9041e-08
-5.3237e-07
6.7307e-07
-3.9648e-08
-5.4203e-07
4.0119e-07
-3.0798e-07
1.7833e-07
3.8336e-06
2.8297e-06
-4.8092e-06
-1.8541e-06
3.8148e-06
-2.8933e-06
2.9126e-06
-1.87e-06
3.8878e-07
1.6191e-06
-6.5894e-07
-1.779e-06
-3.7302e-06
5.4368e-06
7.2364e-08
-1.1605e-05
6.3344e-06
3.4968e-06
1.7945e-06
-1.0164e-05
-4.694e-06
2.7725e-06
-4.4574e-06
-8.306e-06
7.8164e-06
4.947e-06
-4.4882e-06
3.6719e-08
6.3102e-06
-5.356e-06
3.8671e-06
5.6699e-08
3.0666e-07
-6.1237e-08
-3.0212e-07
5.6363e-08
-1.0089e-10
5.968e-07
-5.4437e-07
3.9346e-09
-6.8408e-08
9.7061e-07
-8.2266e-08
6.8933e-07
-8.7217e-07
2.6511e-07
2.9007e-07
4.2921e-08
-4.1475e-07
-5.1802e-07
-5.7978e-07
1.7874e-06
-6.7273e-07
4.4525e-07
-6.1524e-05
-5.1946e-06
-7.3284e-06
-1.6201e-05
1.4432e-05
-5.9755e-05
4.3257e-05
7.9578e-07
-6.0253e-05
-1.2592e-05
5.0654e-05
-5.3907e-06
3.5726e-06
9.6849e-07
8.4965e-07
4.0075e-06
-4.8443e-06
-4.5588e-06
5.2178e-06
-1.087e-06
-1.2532e-07
3.632e-06
5.1548e-06
1.2499e-05
2.4005e-05
8.1962e-06
2.0991e-05
-2.875e-05
2.0257e-05
1.1181e-05
-1.2686e-05
2.5509e-05
4.5206e-08
3.2126e-05
-1.0768e-05
3.0324e-05
-1.951e-05
-9.9469e-06
2.3737e-05
-2.4559e-05
1.2738e-05
-3.5373e-05
2.3698e-06
-2.3769e-06
7.1048e-09
-8.5095e-06
8.3892e-06
2.4888e-06
-7.9747e-07
-5.2929e-06
-2.4226e-06
-3.1797e-06
-1.4663e-09
-4.569e-07
5.3361e-07
3.0263e-07
-3.7935e-07
-4.4706e-07
-4.4332e-09
1.0944e-07
-1.4397e-07
-4.1252e-07
9.3026e-07
-2.7411e-07
6.1295e-07
3.835e-06
1.0149e-05
4.3944e-06
-1.393e-05
-3.5532e-06
1.1923e-05
1.7807e-06
3.0702e-07
-1.9165e-08
2.8477e-05
3.1837e-05
2.0909e-05
1.0922e-05
-3.3513e-06
1.3497e-05
2.2673e-05
-4.3311e-06
2.8538e-05
5.874e-06
3.5673e-05
3.5665e-06
-1.656e-05
-1.5023e-05
4.0537e-05
3.0256e-06
3.5712e-05
-1.5054e-05
-2.1804e-05
3.5579e-05
-1.0202e-05
-3.62e-05
1.0082e-05
-4.0047e-07
5.7183e-06
5.1065e-08
-1.8449e-05
7.7017e-06
1.0345e-05
-9.5331e-06
-7.7421e-06
3.4676e-06
-3.0119e-06
-4.3319e-06
3.8762e-06
-2.7509e-06
-7.0183e-06
1.3255e-05
-1.4066e-06
2.7454e-05
-2.8795e-05
3.0244e-05
3.9439e-06
-3.3918e-05
6.7207e-05
-1.9425e-05
-1.3864e-05
3.2044e-05
-3.3099e-05
7.1402e-05
2.8909e-05
-1.2303e-05
1.125e-05
-2.4667e-05
3.2709e-05
1.2952e-05
-1.2009e-05
-2.8939e-06
-7.0056e-06
8.4669e-06
1.4326e-06
-2.9505e-06
4.908e-08
7.6348e-06
-4.8669e-06
-5.6933e-06
6.3134e-06
2.5758e-10
-3.7743e-09
3.5167e-09
-1.7229e-09
1.9817e-09
-8.7869e-07
-3.3283e-06
4.2053e-06
1.353e-06
-2.2294e-06
-6.5511e-06
-5.4104e-05
2.4008e-05
3.6648e-05
-2.9226e-05
6.6272e-06
1.6049e-05
2.0267e-05
-2.1826e-05
-1.6485e-05
-1.7352e-05
-1.8059e-05
-3.4352e-07
-1.0828e-06
1.9485e-05
-5.5152e-06
-6.6502e-06
-5.8925e-06
3.7621e-05
-2.2978e-05
-2.0157e-05
3.0682e-06
3.4212e-05
-8.7868e-06
9.8998e-06
-1.9151e-05
1.8038e-05
1.0393e-05
7.1795e-06
-2.636e-05
-9.9629e-07
-1.038e-05
2.1275e-05
-1.3076e-05
2.2471e-05
1.6025e-06
1.0942e-05
8.7492e-06
-2.1293e-05
1.1069e-05
-1.9848e-05
1.7156e-05
-1.9292e-05
-4.6523e-06
-9.9025e-07
1.1796e-06
4.4629e-06
-8.0702e-07
-2.4899e-06
-5.1399e-06
4.5429e-08
4.1046e-06
-3.6129e-06
-2.3351e-06
-2.702e-05
1.3979e-05
-5.2605e-06
1.8302e-05
-1.8176e-05
-2.2346e-05
1.3514e-05
-1.0071e-05
1.9151e-05
-3.245e-05
-7.2763e-06
4.0423e-05
-1.4121e-07
-1.3737e-06
2.6487e-07
-1.3944e-07
-1.7588e-09
4.3577e-07
-4.6866e-07
-1.0654e-07
-7.8625e-07
-1.5167e-07
-1.5486e-05
1.6717e-06
5.8195e-06
7.9947e-06
-2.93e-06
-4.6134e-06
-7.9477e-06
2.3097e-05
-1.1506e-05
-1.4522e-05
1.2447e-05
1.2316e-05
2.1945e-07
1.1921e-06
-4.8086e-07
4.2606e-06
-2.3544e-06
-1.6856e-06
1.1933e-06
-7.8151e-10
2.2788e-06
3.1748e-06
3.3141e-06
-2.4281e-06
-9.314e-07
4.5408e-08
-2.0919e-06
2.0559e-06
3.3498e-06
2.6832e-06
-3.3239e-06
-1.7874e-06
-7.8925e-08
6.6956e-07
2.3914e-06
7.5393e-07
-1.4856e-06
-1.6598e-06
5.2059e-07
1.7904e-06
-8.8137e-07
-1.6893e-06
-3.5612e-06
1.4232e-06
3.5041e-07
-2.8453e-06
-1.6004e-06
6.649e-07
2.9735e-06
-3.5418e-06
-9.655e-08
6.8379e-07
-9.4149e-09
-2.718e-06
1.1757e-06
1.0414e-06
-7.7172e-07
-2.6651e-06
5.6281e-08
-4.5146e-10
2.6092e-06
-5.2497e-07
-1.2429e-06
-8.9452e-07
-5.0674e-08
-4.6961e-07
-1.7508e-09
-1.4118e-06
4.6433e-06
-3.4259e-07
-2.8889e-06
1.6411e-06
-4.4106e-07
-2.6125e-06
2.253e-06
-1.1917e-06
-2.6526e-06
2.3851e-06
2.5204e-06
5.1595e-07
-4.7433e-06
4.7517e-06
-8.4193e-09
7.8721e-06
-9.8141e-06
-2.805e-06
-2.3553e-07
2.3609e-06
5.7442e-06
4.4818e-06
2.8421e-08
5.1571e-06
-4.0137e-06
1.224e-05
-1.3384e-05
-3.2812e-06
-1.1543e-05
3.9278e-06
1.5149e-06
-9.4564e-06
9.151e-06
-8.5027e-06
7.2411e-06
-5.8209e-06
7.6254e-06
-9.0457e-06
-5.3112e-06
1.5103e-05
-2.549e-06
3.2924e-06
-7.3541e-06
-1.7582e-06
-3.931e-06
1.9139e-06
2.9985e-06
-3.2106e-07
-2.0543e-06
-6.2314e-07
-1.0318e-06
3.2411e-06
7.8869e-07
5.4732e-06
-4.3056e-06
-1.4888e-06
-2.2639e-07
4.6666e-06
4.4831e-06
7.3651e-07
-2.5275e-06
-2.6921e-06
6.4132e-07
-1.7021e-06
-1.8683e-06
-4.6314e-06
2.8181e-06
3.2405e-07
-4.3056e-06
-2.0283e-06
-2.7484e-06
2.4584e-06
-8.1436e-07
1.2457e-07
-2.0586e-06
-6.887e-07
-2.6551e-06
9.8002e-07
-1.8453e-06
-1.8636e-07
1.0516e-06
2.6462e-06
7.9129e-07
-1.3987e-06
-3.2316e-07
8.5173e-07
2.2158e-07
3.0177e-06
7.2872e-07
2.4984e-06
1.1935e-07
-1.0373e-06
1.6468e-06
-6.5787e-07
-8.6069e-07
1.6377e-06
-2.2982e-06
1.862e-06
-9.0225e-07
-1.7549e-06
1.6198e-06
9.1382e-07
-2.3521e-06
5.3569e-07
1.4891e-06
-1.4365e-06
1.0936e-06
-3.5412e-06
-1.0255e-06
3.4731e-06
-2.5398e-06
3.5698e-06
6.2591e-08
3.2931e-07
-6.3021e-07
-2.0689e-06
-1.4193e-07
2.0657e-06
-2.0739e-06
8.2563e-09
-9.269e-06
8.243e-06
3.0887e-06
-2.4612e-06
1.8035e-06
-8.6158e-06
-6.5112e-08
-5.0706e-06
1.3107e-07
3.6836e-06
1.2559e-06
1.0466e-06
-3.2077e-06
-2.9068e-06
3.3598e-06
-6.9693e-07
-1.6161e-06
3.9648e-07
3.0982e-06
-2.8084e-07
2.1259e-07
-2.797e-07
2.5935e-10
-4.7286e-07
-5.0172e-07
-3.6877e-06
-2.1481e-06
2.0558e-07
5.6303e-06
-1.9958e-06
7.1328e-07
-2.4056e-06
-2.5412e-06
2.1114e-07
1.818e-07
-1.5229e-06
-3.0136e-06
1.7428e-05
-3.237e-06
-1.3411e-05
-7.7967e-07
-6.6594e-08
1.01e-06
1.6485e-05
1.3281e-05
-3.7908e-06
-1.2726e-05
1.275e-05
4.6612e-07
-8.3264e-06
-7.0457e-07
9.1073e-06
-7.1131e-06
-3.7255e-06
-5.5173e-06
-3.5964e-06
1.6892e-07
-2.0312e-06
2.416e-06
-3.981e-06
3.871e-06
1.8925e-06
-7.7964e-06
6.452e-06
-6.3056e-06
4.5413e-06
5.5615e-06
-1.0247e-05
1.4416e-07
4.6136e-06
-6.261e-08
-7.1342e-06
-9.3321e-06
5.2247e-06
-7.7403e-06
-2.7074e-08
5.8305e-06
-9.5877e-06
-1.4214e-06
1.4593e-06
-3.7882e-08
-6.2195e-06
4.8152e-07
-9.0616e-06
3.5127e-06
-9.6553e-07
3.0234e-06
-2.0995e-06
4.1555e-08
2.0619e-06
-5.5296e-07
-2.4754e-06
-1.3315e-07
1.6907e-06
5.0369e-07
2.1995e-06
1.1371e-06
-2.4476e-06
1.9138e-06
-3.8625e-06
8.4167e-07
4.1571e-06
6.658e-06
-4.6697e-06
-4.4364e-06
-5.3288e-07
3.3237e-06
9.7415e-06
-2.5998e-06
-6.3825e-06
3.8945e-06
5.3053e-06
-6.466e-06
1.7733e-06
-6.8639e-06
-1.2983e-06
5.9398e-06
5.22e-08
-4.2249e-06
4.0497e-06
5.779e-06
3.6849e-06
-4.2889e-10
1.9691e-10
2.3197e-10
4.8458e-08
-4.845e-08
-4.3235e-10
-1.0872e-09
1.1193e-07
-6.1621e-08
6.6781e-10
4.6877e-08
7.5133e-08
-8.0177e-08
-4.1833e-08
4.7041e-08
-2.2443e-11
-7.8272e-07
7.819e-07
4.7869e-08
9.2325e-08
-7.9954e-07
1.7446e-05
-4.5163e-05
1.823e-05
9.4875e-06
-2.7873e-05
2.2632e-05
2.2691e-05
2.2605e-06
-9.9658e-06
-3.7456e-05
-2.1742e-05
-9.7611e-07
9.7608e-07
3.1227e-11
8.5711e-07
-6.8966e-07
-1.1428e-06
-3.7912e-06
1.5193e-07
2.7715e-06
8.6775e-07
-1.5285e-06
-1.4213e-06
-3.645e-06
9.4076e-07
2.8524e-06
-2.3953e-06
-2.7809e-06
1.7807e-06
1.9481e-06
3.8108e-06
-5.63e-06
2.4783e-06
-8.1312e-07
2.1451e-06
4.1867e-06
2.3946e-06
-4.6819e-06
-4.1429e-06
3.9154e-06
4.9093e-06
-5.5171e-06
-2.5165e-07
7.4888e-06
-2.7702e-06
-2.4413e-06
-2.2773e-06
3.5609e-06
-2.1474e-07
-4.9929e-06
-3.2939e-06
-1.785e-05
-3.3016e-05
3.1569e-05
1.9297e-05
-5.7888e-05
3.5486e-05
4.5213e-06
3.2348e-05
-5.7021e-05
-3.3246e-05
-1.0222e-05
9.4879e-06
-7.3195e-06
-1.849e-05
2.5763e-05
4.6595e-08
-1.5217e-05
1.6763e-05
-8.8848e-06
3.8022e-06
6.6677e-06
-2.571e-05
1.001e-05
-2.4746e-05
-2.5183e-06
-1.6218e-05
4.3101e-06
1.4427e-05
-2.6218e-05
9.2522e-06
1.4417e-05
-3.1511e-05
1.0924e-05
4.3388e-06
3.6537e-06
-6.1489e-05
-7.193e-06
2.6896e-06
1.2875e-05
3.9881e-08
-6.7321e-06
-4.4507e-05
-5.8483e-05
0.00010972
-5.8002e-06
-7.965e-07
-3.2694e-06
-2.5308e-06
0.00027759
-3.6977e-05
-0.00024388
0.00024053
-7.1654e-06
-5.7367e-06
5.7199e-06
1.6844e-08
8.984e-06
-5.0011e-06
-9.7362e-06
2.4097e-05
-6.67e-06
-8.4692e-06
2.8041e-06
1.2373e-05
8.8971e-06
2.2926e-08
8.4566e-06
-2.8132e-05
-9.5452e-06
-3.6501e-05
9.0011e-06
5.3429e-06
-1.6367e-05
-1.589e-05
-4.3394e-06
-4.0227e-05
1.4719e-06
-9.3707e-07
-8.2457e-07
2.8977e-07
5.6368e-07
7.2086e-07
1.7282e-06
9.7183e-08
-1.1557e-06
6.5356e-07
-2.4793e-07
-4.9347e-07
-6.7496e-07
4.3939e-06
-4.248e-06
1.141e-08
-1.5723e-07
2.3195e-05
1.4767e-07
-4.8749e-07
-2.6956e-06
-4.1759e-06
-2.6368e-06
9.5083e-06
-4.0871e-06
4.7711e-06
-3.3823e-06
-2.5021e-06
-4.5776e-07
-1.127e-06
-1.0678e-06
2.6114e-06
-3.2095e-06
4.0913e-06
-1.3422e-06
1.4745e-06
-5.7522e-06
-4.9735e-06
3.4064e-06
6.495e-11
-2.4057e-10
1.7562e-10
-4.6594e-11
1.1094e-10
1.5597e-06
-2.54e-06
-1.9547e-07
-8.6898e-07
-2.4061e-06
-1.2898e-06
1.137e-06
-2.6602e-06
-6.9189e-07
4.4883e-07
4.7511e-09
-4.5358e-07
-8.706e-07
-1.2193e-06
2.2732e-06
-1.2617e-06
-7.1668e-07
3.9017e-08
1.9393e-06
-2.3023e-06
-2.4551e-06
3.4948e-06
2.7e-06
3.3727e-06
-8.3773e-06
2.7328e-06
-0.00011049
8.5268e-05
-4.7438e-06
-2.4205e-05
-0.00012573
-1.8565e-05
1.8532e-05
7.5813e-07
-7.2495e-07
-1.1135e-05
5.9274e-06
9.6937e-06
-8.5018e-06
-9.3643e-07
1.0768e-05
-1.3301e-06
-6.2608e-06
-3.0794e-06
8.2248e-07
2.6558e-07
9.423e-06
-2.7459e-06
2.7956e-07
3.1963e-06
-2.3295e-08
-4.6974e-06
-4.0743e-06
1.4635e-06
7.3083e-06
-5.2754e-06
-4.3903e-06
4.9642e-06
-4.1559e-06
3.4064e-07
-4.9092e-06
1.4301e-07
2.8929e-06
8.6185e-07
-3.8977e-06
2.8012e-06
-3.5578e-06
8.971e-07
2.6565e-07
1.9812e-06
6.442e-07
9.6385e-07
2.6589e-07
4.5126e-06
1.7092e-06
-6.1084e-07
-1.5057e-06
4.0732e-07
-9.07e-07
3.978e-06
-8.8063e-07
-3.7089e-06
3.5294e-06
-4.627e-07
5.5724e-06
9.5966e-07
1.1578e-06
3.7541e-06
3.158e-06
-9.6899e-07
3.38e-06
-4.3121e-07
1.3014e-06
-1.6279e-06
2.0021e-06
-1.9205e-06
-4.3873e-06
5.7192e-06
-8.3537e-08
-3.6342e-06
6.7651e-06
1.7713e-06
-3.4335e-06
2.0617e-06
2.4965e-06
-1.1246e-06
3.2782e-06
-5.1596e-06
-1.5559e-06
-3.8846e-06
4.5963e-06
1.3482e-06
-1.4417e-06
1.8732e-05
-1.5364e-05
-2.6492e-06
1.0606e-05
8.3803e-06
1.8162e-06
-3.8409e-06
1.0919e-07
4.5989e-06
-2.7512e-06
-1.4838e-06
5.3085e-06
3.0213e-06
-2.0197e-06
7.4263e-07
-2.4014e-06
2.9599e-06
-4.9272e-07
1.7679e-06
-1.0354e-06
-1.1156e-07
-1.3504e-06
3.2391e-06
-1.1151e-06
-2.0954e-06
-2.856e-08
-7.4927e-07
3.6057e-06
3.8078e-07
3.8575e-06
-3.6397e-06
-1.3339e-06
-3.3903e-07
3.4453e-06
-1.9277e-05
1.7834e-05
-1.4252e-05
1.5695e-05
1.67e-05
-1.0653e-05
-2.5327e-05
-1.6565e-05
-3.7436e-07
3.4772e-05
1.1255e-05
-1.1123e-05
-7.9868e-09
2.8808e-08
1.4007e-07
-4.6321e-06
7.5077e-06
3.8889e-06
5.5272e-06
-3.502e-06
-2.1091e-06
8.3951e-07
5.4837e-08
1.7601e-06
5.3662e-07
-6.663e-06
-1.0326e-06
1.1849e-06
6.5106e-06
-4.0895e-07
-3.2665e-07
-5.9295e-06
-5.8521e-06
4.5659e-06
-5.6452e-06
-6.1664e-07
3.5617e-06
-9.9967e-06
-2.9805e-06
-1.8219e-05
5.3405e-05
4.8336e-05
-7.0564e-05
4.0096e-06
3.0126e-05
8.2273e-06
4.3253e-05
3.5212e-05
6.139e-06
2.5721e-06
8.0379e-06
2.8678e-06
5.4028e-06
5.1606e-06
2.4473e-06
5.8211e-06
2.5645e-05
-2.2367e-05
8.6479e-07
-4.1421e-06
-1.6181e-05
3.3767e-05
8.0258e-06
3.0143e-05
-2.522e-05
-2.7324e-05
-1.6435e-06
1.5585e-05
4.5554e-06
-5.1546e-06
1.2274e-05
6.391e-07
-1.0481e-06
-1.1865e-05
5.1342e-06
4.1424e-06
-1.343e-06
6.9077e-06
-6.8857e-05
-1.271e-05
3.5745e-05
4.5821e-05
-6.418e-06
-1.9184e-05
-6.8906e-05
3.804e-05
-2.4271e-05
-5.1053e-05
-8.8715e-06
-1.0229e-05
1.037e-05
-4.1617e-06
-5.85e-06
4.3016e-06
-1.6966e-05
3.9236e-06
4.2475e-06
-4.2542e-07
-4.8845e-06
1.921e-07
2.8597e-06
1.1893e-06
1.7739e-06
3.5444e-06
-4.7385e-06
1.6282e-06
5.4926e-06
2.6434e-06
-3.6598e-06
1.9981e-06
-5.4729e-06
-3.6657e-07
-2.7525e-06
-1.1836e-05
2.2121e-06
3.7726e-06
-5.9571e-06
-4.7128e-06
-9.8902e-06
-1.3035e-05
2.1323e-05
3.6935e-05
-2.2227e-05
2.9904e-05
-1.2654e-05
-1.9522e-05
2.2722e-06
-7.9132e-06
1.9383e-05
1.8377e-05
3.1487e-05
-4.5941e-05
1.7343e-06
1.837e-05
-5.2752e-07
-1.8717e-06
3.5995e-07
2.0393e-06
-2.3993e-06
-2.2891e-07
2.0999e-06
-1.4803e-06
-6.6749e-07
2.7579e-07
-2.1121e-06
-1.7291e-06
1.2969e-06
1.3729e-06
-5.5613e-06
7.5879e-06
8.336e-07
1.2901e-05
2.5652e-06
7.9739e-06
7.0851e-06
1.216e-05
-1.8417e-05
1.7982e-06
7.8461e-06
7.7356e-06
1.7332e-06
-7.9556e-06
1.0235e-05
-3.5186e-06
-1.1871e-05
-1.665e-06
1.7054e-05
-2.265e-05
-1.2867e-05
3.1991e-05
8.5912e-07
1.1299e-05
-2.4032e-05
-4.6074e-05
1.9698e-06
8.1534e-08
2.816e-06
-4.8673e-06
5.688e-06
6.9812e-06
-1.0724e-05
5.9427e-06
2.6283e-06
-5.4412e-06
6.1393e-07
7.9914e-06
1.1108e-05
6.9076e-07
-9.3503e-08
-5.9725e-07
-2.4111e-07
2.3986e-07
6.8947e-07
1.7001e-06
-1.801e-06
2.6963e-09
7.7887e-07
1.399e-05
-9.9828e-06
2.2544e-05
3.6015e-05
1.0699e-05
1.4354e-06
1.9101e-05
1.145e-05
2.443e-05
1.3017e-05
-3.2825e-05
1.7608e-06
1.454e-05
-1.3584e-05
-2.9396e-05
-2.4088e-05
1.3921e-05
1.1926e-05
-4.2247e-05
4.5712e-06
4.4397e-07
-3.8167e-07
-1.5679e-06
1.968e-07
7.8538e-07
-1.4235e-06
6.1499e-07
8.9438e-07
-1.314e-06
1.7851e-06
-1.5141e-06
-4.1757e-07
3.8933e-07
-6.6414e-07
-9.3145e-07
1.527e-06
-5.5205e-07
-7.3555e-07
6.9792e-07
-4.8605e-06
5.2532e-06
2.6283e-06
1.1357e-08
-1.7157e-06
-4.7903e-06
1.46e-06
2.5172e-06
3.4084e-06
-5.6264e-06
-2.5729e-06
-7.013e-06
4.539e-06
3.9332e-06
-1.7177e-06
-1.8879e-06
3.8891e-06
5.8894e-07
1.7853e-06
5.7758e-08
3.2913e-07
4.2353e-06
2.37e-06
-6.0166e-06
4.4824e-07
3.8441e-06
-3.8214e-06
2.5115e-06
2.0938e-06
-7.8381e-07
3.1119e-06
-3.0655e-06
-3.8633e-06
-8.7919e-07
2.43e-06
9.6168e-07
1.6603e-06
5.7218e-07
-3.9225e-06
5.6765e-06
6.7593e-07
-2.8783e-06
3.4929e-06
5.8382e-07
-1.8025e-06
4.4724e-06
-6.5703e-06
-1.0924e-06
3.1903e-06
-6.72e-06
9.5687e-07
1.0235e-05
3.7944e-06
-4.6189e-06
-5.7459e-06
-2.9107e-06
-1.5827e-08
-2.7324e-06
6.5357e-07
4.1909e-06
-2.1121e-06
5.502e-07
2.0188e-06
-2.6185e-06
5.0401e-06
-5.1024e-06
3.0307e-06
2.112e-06
5.4791e-07
-2.5515e-06
1.7366e-07
2.4724e-07
2.0539e-06
5.4844e-07
1.8776e-06
3.4965e-07
2.7117e-06
-1.6179e-06
5.0835e-07
-9.135e-08
4.8951e-06
2.4899e-06
-3.3678e-06
-4.0172e-06
2.7826e-06
3.5807e-06
4.5517e-06
-1.5561e-06
-5.0739e-07
6.3559e-06
9.7528e-07
-1.3194e-06
4.2841e-06
6.2891e-07
2.3913e-05
9.1194e-06
-1.3932e-05
-1.4093e-05
2.7676e-05
1.0328e-05
-4.6128e-06
1.4948e-05
1.8821e-06
-9.4546e-07
-8.3886e-07
-9.7824e-08
-5.0087e-07
9.5459e-07
1.6948e-06
-5.3807e-07
-2.1052e-06
6.6352e-07
5.2866e-07
1.1262e-07
3.7957e-07
8.3385e-07
-1.326e-06
4.4023e-07
-1.5203e-06
-2.3172e-07
1.0692e-06
3.9856e-06
1.8086e-06
-6.4931e-07
-5.1449e-06
1.8092e-06
-2.304e-07
3.9313e-06
1.297e-07
-2.2556e-06
2.5205e-06
3.2128e-06
-5.855e-06
4.954e-06
-6.1095e-06
-7.5893e-07
-2.4898e-05
1.4559e-05
3.5011e-06
2.7284e-06
6.3537e-07
7.8054e-09
1.6573e-05
6.301e-06
-1.8717e-06
1.95e-05
1.873e-05
2.4299e-05
1.1772e-05
3.2204e-06
-4.3571e-06
-6.7529e-06
7.8895e-06
7.4975e-06
-2.8651e-06
5.4847e-06
-7.8604e-06
-4.3095e-07
2.4729e-06
-2.3156e-06
3.4708e-06
1.828e-07
-2.542e-06
5.7294e-06
5.6968e-06
-1.1391e-06
-3.4942e-06
-1.572e-06
6.2052e-06
-5.3608e-06
-3.1334e-06
7.356e-06
4.2317e-07
-4.7086e-06
7.9188e-07
1.4077e-06
-6.3444e-06
-4.4556e-06
-5.7066e-08
3.9878e-06
5.2485e-07
-5.798e-07
3.9614e-07
-3.3418e-06
2.9021e-06
3.8298e-07
-3.5434e-06
-3.776e-07
-3.9248e-06
-5.4643e-06
5.8686e-06
3.5204e-06
-8.4749e-06
4.4073e-06
1.4263e-07
-8.2178e-07
-1.6073e-06
-3.0353e-06
-5.5549e-06
-3.7425e-06
1.0025e-06
3.5277e-06
1.1217e-06
-1.2147e-06
9.2635e-07
2.7291e-06
-6.0464e-07
2.2224e-06
1.4648e-06
-9.5816e-07
3.3457e-07
5.4161e-06
2.8191e-06
-3.5446e-06
5.0924e-06
2.2299e-05
-2.3188e-05
1.6511e-05
-2.5744e-05
4.5737e-05
2.3058e-06
3.0219e-05
-1.5368e-05
1.5924e-05
2.2893e-06
-2.8685e-06
-6.4071e-06
8.6964e-06
1.2719e-06
-1.9421e-06
-2.1764e-06
2.4644e-06
1.1246e-05
-7.591e-06
-6.1193e-06
1.2518e-05
-6.3475e-06
-3.7045e-06
5.9826e-06
1.2786e-05
-7.5212e-06
-3.64e-06
-1.1619e-05
-1.9771e-05
2.994e-05
-9.8062e-06
-3.6264e-07
4.545e-05
-3.3928e-05
-3.1293e-05
-3.0607e-05
3.5731e-05
2.4815e-05
7.2201e-06
7.6227e-06
-4.296e-06
4.1662e-06
2.35e-06
-2.2202e-06
5.3661e-06
-7.7703e-06
-2.951e-06
-1.5911e-07
7.2753e-06
-3.7957e-06
6.2087e-06
-3.9473e-06
-2.5415e-06
6.3291e-06
-2.9542e-07
4.0239e-06
-7.6788e-06
5.8352e-06
-9.9279e-06
-3.1635e-06
2.055e-06
-1.6894e-06
-2.0406e-06
5.1333e-06
-6.0101e-07
2.6226e-06
-4.4048e-06
-2.2093e-06
1.8566e-07
4.1159e-06
-3.461e-06
2.5812e-06
-1.9883e-06
-4.081e-07
4.8378e-07
2.4944e-07
6.5871e-07
1.6163e-06
1.5342e-06
-1.3854e-06
-1.7651e-06
1.0388e-06
2.8248e-08
5.4921e-07
4.2707e-06
-2.5309e-06
2.103e-06
7.4209e-07
-2.6136e-06
2.7987e-06
-2.1983e-06
4.5246e-06
3.7799e-07
3.2964e-06
-3.8694e-06
-1.7355e-06
2.3085e-06
-4.5925e-06
6.3178e-06
2.9436e-06
-3.0054e-07
-6.5122e-06
2.7538e-06
-4.4016e-06
4.8473e-06
-2.8386e-07
-4.1671e-06
1.8445e-06
2.7028e-06
3.5298e-06
2.3031e-06
-2.2325e-06
-1.1526e-09
1.0191e-06
-4.4272e-07
-3.1156e-06
-4.9495e-06
4.6595e-06
-9.5839e-07
-1.7095e-06
9.5232e-07
1.7156e-06
-5.6438e-07
-1.0957e-07
-2.8476e-07
-1.163e-06
-1.8767e-07
-9.816e-07
-7.4668e-07
1.7797e-05
1.7287e-05
-3.794e-05
2.1808e-05
-2.7006e-06
-1.0694e-06
-2.3597e-06
-3.1933e-06
-1.2632e-06
2.2893e-06
-2.0954e-06
2.2771e-06
9.6419e-07
-1.471e-08
-2.5588e-06
5.0292e-06
-2.4975e-06
6.1077e-06
-2.7262e-07
-4.1884e-06
7.0908e-07
3.349e-06
2.0495e-06
1.023e-05
-3.0548e-06
-7.4479e-06
4.2294e-06
6.7116e-06
4.938e-06
-3.7847e-06
8.7269e-07
-2.026e-06
6.5115e-06
2.6575e-06
-4.0135e-06
-2.824e-06
1.8705e-06
-4.1187e-07
1.3764e-06
2.0109e-06
-3.3542e-06
-2.2441e-06
-6.6088e-06
-1.7887e-06
-1.6485e-06
5.5316e-06
7.0429e-06
1.3613e-05
-1.4969e-05
-5.6865e-06
1.1075e-05
-1.4145e-06
2.1907e-05
2.7602e-06
-3.0118e-07
5.4246e-05
-7.8148e-05
6.2884e-05
-9.2585e-05
3.836e-05
7.8768e-05
1.1537e-05
8.3211e-06
-1.9858e-05
-8.9022e-06
1.6e-05
-1.6383e-05
9.2852e-06
5.5146e-05
-7.3118e-07
-5.4415e-05
8.2752e-06
-6.3429e-05
-3.7435e-05
-4.8941e-05
6.7483e-05
-1.0273e-05
4.6841e-06
-0.00015313
8.5017e-05
7.9384e-07
-4.5081e-05
0.0001568
-4.7327e-05
-7.1111e-05
4.0316e-05
3.033e-07
4.897e-07
-5.6292e-05
-3.6787e-05
2.6629e-05
6.645e-05
-4.472e-05
-7.7565e-05
-7.4593e-06
-7.0325e-05
3.0414e-05
1.6214e-06
5.1174e-07
-2.1331e-06
-1.4192e-05
4.0724e-05
-3.1532e-05
5.0012e-06
6.3952e-06
9.8305e-06
1.2845e-05
-2.9071e-05
-1.6282e-06
2.6416e-05
-1.8401e-05
-6.0526e-05
5.3004e-05
1.6485e-05
1.1449e-05
-2.43e-05
-1.2478e-05
3.3428e-05
-2.2635e-05
-2.1803e-05
4.8622e-05
-0.00013988
0.00011306
-0.00023004
5.5094e-05
4.3596e-05
3.5634e-07
-4.1696e-05
-2.2561e-06
4.4711e-05
-0.00016734
0.00017126
-1.0975e-05
6.0067e-05
-4.3483e-06
-2.9653e-06
-6.0556e-06
1.2466e-05
-3.4456e-06
-0.0001208
8.0096e-05
0.00021652
-0.00017581
-2.6867e-05
-4.557e-07
2.0127e-05
7.1963e-06
3.4069e-06
2.0937e-05
2.0148e-06
-7.6929e-05
2.8326e-05
5.8413e-05
2.4695e-06
-3.7781e-05
-2.1752e-05
7.142e-06
-6.0642e-06
3.113e-07
-1.3891e-06
1.7498e-06
7.8166e-07
-2.5314e-06
2.7651e-07
-7.2838e-08
-2.0367e-07
-7.1063e-06
3.2421e-06
-1.1559e-05
1.5423e-05
2.1963e-07
-2.121e-07
-7.5329e-09
3.067e-06
4.2594e-05
-4.4352e-05
-1.3086e-06
1.5137e-06
-7.4675e-07
-7.6693e-07
-0.00017821
3.283e-05
-5.7679e-05
0.00020306
2.1234e-05
-1.8412e-06
-3.7825e-05
5.8048e-05
-0.00013983
7.1866e-05
9.9203e-06
2.9329e-05
-2.9026e-05
3.5744e-05
-1.7174e-05
-5.1847e-05
-6.1833e-06
8.1667e-06
-3.9946e-06
2.0112e-06
-3.2045e-07
5.4003e-07
1.3004e-06
-4.1943e-06
-2.6192e-05
-1.9617e-05
4.0817e-05
-2.6759e-07
-1.9659e-05
5.8003e-06
1.3858e-05
-1.6053e-05
-5.9616e-05
3.8843e-06
-1.0095e-05
1.6215e-05
-5.3755e-07
0.00010385
-0.00010331
-1.571e-05
-1.9843e-07
-8.0367e-06
9.7872e-06
-8.5746e-06
1.8186e-05
4.4108e-07
-1.8627e-05
3.9217e-06
-2.994e-08
2.6197e-07
-2.3203e-07
-2.0402e-08
-3.2137e-08
5.2538e-08
1.1328e-05
-2.6489e-06
-9.6062e-07
-7.7189e-06
-1.0039e-05
2.249e-06
3.1629e-06
4.6272e-06
-6.4005e-05
7.1368e-06
-1.0004e-05
-2.1666e-06
6.0469e-09
-2.6479e-08
-2.193e-07
-4.3575e-05
9.3565e-06
3.4437e-05
7.741e-06
-6.9573e-06
-3.2635e-06
-4.0186e-05
6.215e-06
-1.2578e-05
-8.6325e-06
-1.5427e-06
-9.2468e-09
0.00017101
-4.8906e-06
-0.00028687
6.1068e-06
2.5667e-06
3.7686e-06
3.001e-09
2.4869e-05
-9.6721e-07
2.4388e-05
2.867e-07
3.7793e-05
-9.229e-05
3.6152e-07
-3.5852e-07
1.704e-05
-7.0203e-06
-4.6626e-05
6.8307e-06
-3.901e-07
-6.336e-07
-5.2841e-05
5.5172e-06
-4.9213e-06
4.6881e-05
3.2267e-07
-1.8751e-05
1.8428e-05
1.0517e-06
-2.5944e-06
6.0917e-07
-8.9379e-06
8.9078e-06
6.2566e-06
-4.8839e-06
1.671e-05
-1.4456e-06
-2.5149e-05
-8.0444e-05
6.0646e-05
-1.6629e-05
6.3981e-06
-6.3921e-06
1.6587e-05
1.4498e-05
-2.4703e-05
4.4953e-05
4.551e-07
8.196e-07
-1.2747e-06
6.2078e-07
2.5378e-06
1.0768e-06
-6.1141e-05
6.3679e-05
1.7623e-06
-6.8546e-07
3.4554e-05
-4.579e-05
8.9617e-06
5.3936e-05
-5.8203e-06
-7.7735e-06
-4.0342e-05
-4.0461e-05
1.2476e-05
-3.2183e-05
1.9707e-05
-2.2614e-05
-0.00018408
-6.1225e-05
1.0214e-05
6.9733e-05
-1.3937e-05
3.5894e-06
1.5214e-05
1.9801e-05
2.2521e-07
9.2783e-06
7.5041e-06
-4.8356e-07
-5.0786e-07
-3.2869e-06
2.5578e-06
-9.7299e-06
-1.9062e-05
-6.4976e-05
-2.2886e-06
1.4896e-05
5.2249e-06
-8.8057e-06
-1.3488e-07
-6.1774e-06
6.1682e-06
-1.1213e-05
-2.9581e-05
0.0001052
5.0497e-05
3.1359e-05
0.00014217
-5.4346e-05
4.0751e-05
1.0515e-05
-1.3824e-05
1.3333e-05
-1.1942e-05
1.2383e-05