/*--------------------------------*- C++ -*----------------------------------*\\
| =========                 |                                                 |
| \\      /  F ield         | OpenFOAM: The Open Source CFD Toolbox           |
|  \\    /   O peration     | Version:  v1706                                 |
|   \\  /    A nd           | Web:      www.OpenFOAM.com                      |
|    \\/     M anipulation  |                                                 |
\\*---------------------------------------------------------------------------*/
FoamFile
{
    version     2.0;
    format      ascii;
    class       volScalarField;
    location    "1";
    object      p;
}
// * * * * * * * * * * * * * * * * * * * * * * * * * * * * * * * * * * * * * //

dimensions      [1 -1 -2 0 0 0 0]


internalField   nonuniform List<scalar>
7155
(
14.9585
16.8908
21.443
17.6222
23.7366
27.1199
35.3642
32.4281
38.912
35.5299
27.8091
28.75
32.8425
32.3581
32.1353
34.0062
36.2936
29.7213
26.4871
22.9667
29.6691
34.5743
34.5608
58.5651
59.169
47.6675
41.3603
39.9948
21.0733
22.4488
20.4272
20.4584
18.5959
17.6851
13.8848
13.7056
13.3155
12.7418
13.04
31.918
32.0608
29.6437
29.7852
33.3125
32.3879
33.7239
34.1114
34.8066
31.6376
29.7868
35.0786
43.6924
41.3321
41.679
43.2352
39.4212
44.4659
29.135
32.6476
15.6363
15.2327
15.1259
14.9259
16.6918
15.678
16.3306
15.8489
16.7866
18.6334
18.5599
17.099
16.1216
18.8753
16.9961
14.3787
14.5808
16.6384
33.6035
42.2834
35.2472
43.2337
37.5114
45.7966
32.9386
48.9367
54.6285
52.046
51.3054
54.0747
38.4526
28.7144
26.8452
29.4157
28.7441
23.0172
25.398
23.7371
17.3377
17.547
15.8695
15.3268
16.5849
51.4165
48.817
41.6243
45.4414
40.7177
37.9467
38.5928
17.5623
21.1304
19.5389
26.0059
28.3033
30.5736
27.5061
31.3197
30.2241
32.3167
31.8513
15.0201
16.0492
14.7226
13.628
14.2271
16.8779
16.4011
18.7165
20.6878
19.1574
19.5828
23.5451
24.5589
32.9495
33.9733
31.3627
29.5503
26.6186
27.5374
28.5253
37.5983
28.1036
28.2969
25.0995
23.5753
25.1072
21.2883
22.0023
21.3604
22.0888
20.0466
19.1242
17.9738
20.6234
19.6352
18.4914
17.8357
14.3026
15.1275
14.3064
13.9114
13.0944
13.7306
16.8279
20.5751
39.4104
37.5434
35.7525
34.0722
32.7043
33.8169
27.0872
27.8536
27.3938
36.9683
29.5479
37.0158
36.3361
36.3428
35.644
34.3205
32.9561
33.624
34.7486
34.5389
22.6547
25.1454
22.8785
20.7907
14.1189
12.8141
14.9706
16.6748
16.3044
17.9173
13.2797
13.3457
11.4175
9.53
10.7865
10.5875
11.0978
12.5392
14.805
43.8026
44.3251
37.2265
16.6166
16.944
18.6417
19.932
20.7706
19.3111
18.8374
32.9313
30.9447
27.9213
29.8671
11.968
12.3105
12.4795
12.8669
13.8582
12.9926
15.0164
13.8275
14.0233
8.8972
8.4763
9.0304
9.9539
3.6595
3.1773
5.406
4.3996
5.2181
4.3185
5.0935
5.4951
12.0882
12.3929
13.6103
13.3665
14.8525
16.4893
10.2803
12.2498
18.6735
18.2034
15.7028
17.3148
15.1689
15.7378
17.3255
6.3888
6.6085
5.6186
4.7085
4.6511
6.463
6.4261
6.5902
3.9478
2.4492
-0.0087332
-0.063133
27.9834
27.4966
30.6813
30.3436
19.7794
20.2592
26.9065
25.5193
6.531
6.0673
6.1223
5.7373
6.5942
6.4348
5.8724
5.6988
2.6251
5.5241
7.3607
5.2925
13.3313
14.0425
12.1805
11.232
8.166
8.2101
5.4008
6.8797
9.2532
9.1824
9.0967
15.9427
14.5762
19.5405
20.8779
10.3509
11.6361
10.718
10.2842
32.0999
33.1908
28.3659
28.2474
30.8542
28.1079
26.4724
24.171
26.632
24.1456
24.3868
24.1125
24.3222
25.2702
22.566
25.1888
15.4226
14.4383
18.2471
18.415
18.0978
18.2846
15.4205
16.4717
17.2065
17.949
21.9573
22.4669
25.2303
23.0658
21.8998
21.6525
23.6177
23.389
18.778
20.8104
22.4822
21.2524
14.4916
16.7436
18.7468
15.7847
8.34
8.5781
4.3463
5.2028
7.1737
7.116
6.3368
3.5819
4.5408
4.6898
5.7517
15.321
16.3414
19.9051
19.8581
17.1737
-1.0543
-1.1753
0.85875
1.3903
18.0517
20.7702
19.9242
15.9941
7.5209
8.0943
5.4252
6.6705
8.2107
7.4781
9.0288
9.0664
10.4664
9.2791
10.0535
11.2411
12.1955
4.687
4.331
0.30163
2.6922
2.2059
4.4242
5.2245
3.1934
8.5052
8.5404
7.7261
6.8999
6.9768
28.4465
28.0289
23.3458
23.419
1.7964
-0.2354
4.2164
3.4875
6.58
5.4368
7.4519
6.5592
9.7829
8.8871
9.4444
8.2183
8.8981
7.6346
9.8862
9.8525
10.7155
7.6869
8.5165
9.461
7.3495
6.6985
8.3382
11.8481
11.3689
10.6616
10.5404
11.5913
10.9078
10.5172
10.7456
5.3323
3.99
7.8371
6.6213
18.4902
17.7904
21.1933
21.6203
3.8904
6.1654
6.4244
5.2747
5.7381
5.9953
6.6314
8.426
9.6417
9.1381
10.0373
35.2247
33.6888
36.3017
35.0112
38.5176
34.901
0.61009
1.4978
5.452
5.3868
1.8637
17.2592
17.5968
17.9602
18.0064
16.2291
17.1831
16.6382
16.6275
15.7006
12.1344
11.6023
10.1294
10.139
12.2012
11.5998
14.1233
13.7789
14.2419
13.1629
14.6554
15.1566
14.2285
13.1774
5.6558
6.7486
6.3005
5.6332
5.4197
5.4168
5.8885
4.4578
5.4945
23.334
22.7726
24.9159
24.4423
13.0139
16.3022
12.4352
15.7128
11.8448
15.1312
10.293
7.0496
6.98
4.2874
9.2137
11.1623
10.6355
9.4296
12.0256
34.8261
36.6574
42.0433
39.8749
21.9031
22.3843
23.0938
23.4055
36.8464
37.1078
41.0326
41.1773
36.1921
30.6951
36.0263
72.5336
76.2889
90.8604
84.3007
80.3576
26.6539
29.242
26.0507
23.527
23.1885
25.9184
28.0193
31.331
32.1032
10.5616
8.2576
8.8385
7.7003
8.1833
10.9133
14.187
14.9668
14.3519
8.5641
9.9997
12.5911
12.7684
13.475
13.8518
10.0281
24.7401
23.2122
24.153
22.9939
24.0906
26.0666
26.5236
29.5638
27.5536
26.1644
12.5141
13.8712
16.052
14.7547
35.2526
38.8209
33.092
33.2196
29.9019
22.3995
24.037
22.6977
26.715
29.2037
22.6169
24.4791
23.9222
25.7455
14.5771
14.3156
13.8095
13.5846
28.7289
12.1072
11.5369
12.6616
12.2138
15.586
14.167
12.7569
14.1944
11.1125
10.7614
9.4824
15.2378
16.2146
14.2531
15.088
33.4207
29.9469
11.3304
12.5897
30.7324
19.5739
13.6191
13.7471
13.8875
13.3753
13.4346
11.4011
11.5705
11.0103
12.1933
11.222
17.5128
19.7815
16.9955
18.7366
11.0992
11.2946
8.6603
10.6705
9.3683
12.7722
11.3072
12.3201
11.1171
12.5322
15.4718
14.8491
30.9425
29.6783
28.2528
27.1347
19.3482
18.385
19.1231
18.1023
25.9912
23.6883
28.3434
25.2972
26.191
33.2677
17.3993
16.0158
17.2937
18.2242
25.3698
28.1331
26.4412
29.6169
17.2034
16.7238
18.578
17.0175
15.7123
15.4729
24.768
25.7207
13.7124
13.7701
17.4197
19.0125
20.1077
20.3916
32.554
35.2487
31.1379
38.4325
34.367
12.2225
12.1599
14.4174
14.907
14.4824
15.3797
15.1321
18.8214
18.4795
19.3261
18.7612
19.4518
17.8272
33.4022
32.7047
34.4365
33.5492
37.6871
36.566
15.2037
14.3453
15.5755
12.8808
10.9402
13.9874
11.4733
34.1329
34.6736
33.0214
28.4315
28.8163
35.5244
38.2665
36.752
37.5204
17.4385
-0.65916
8.1363
8.2636
8.139
5.3878
7.2931
6.7937
6.9921
7.3503
11.8862
12.9055
7.9756
8.9337
7.472
8.4662
13.2062
12.214
12.9795
12.1067
9.6073
10.9347
6.5518
8.1334
5.4464
6.6733
8.1002
8.2745
7.4974
9.2061
8.5409
9.3962
10.2425
9.3141
10.0583
12.0179
11.1715
11.4453
10.4912
8.7294
10.8717
12.41
13.412
12.7397
11.9997
10.8736
12.7212
11.2508
27.3518
26.4758
28.0123
9.5116
8.6342
10.1416
9.0798
8.2295
8.5329
7.9651
8.2731
16.6513
15.8043
14.3518
13.6159
29.1637
29.5264
28.3564
6.8741
5.6433
7.5778
22.2873
20.707
19.6083
15.8894
15.5841
16.699
10.7829
11.3093
9.1038
9.1695
9.4515
9.2248
10.8321
10.8096
10.3369
11.071
10.6911
11.4342
13.9748
14.4153
15.5914
15.8612
6.7516
7.2401
7.1354
4.9176
4.637
10.4867
8.1964
21.8039
22.0814
24.1095
23.9415
10.7188
7.8463
8.4969
3.6118
2.178
-0.11747
-1.1589
-0.32285
10.9639
13.4703
9.0318
11.8711
6.1151
6.2003
3.8157
3.5943
4.6222
4.5655
4.8519
12.1814
13.3463
14.6229
16.8314
16.4376
11.8713
11.2832
10.257
10.3034
8.0245
7.6079
7.7033
6.3521
8.9039
7.5807
5.8387
10.0688
9.9154
10.7521
10.5787
10.8022
9.8758
9.5991
8.3069
8.9267
14.6279
14.9608
10.3172
11.8049
11.5531
12.5401
18.3017
16.1042
18.1019
-0.55231
0.71484
17.8204
16.4765
16.6556
9.0178
7.8948
9.0806
7.5112
8.446
7.7665
9.4146
11.0945
9.5839
10.0693
8.8984
13.3507
8.5835
9.3616
24.6856
25.7142
22.6376
45.2843
45.3525
41.4199
39.5841
44.3781
83.8885
52.0798
53.3939
54.6712
56.999
41.8918
36.0685
52.3976
45.1167
44.2481
47.8706
73.5948
47.0569
54.3682
49.5811
51.9974
41.2983
46.0164
62.8331
60.7715
65.0012
58.4283
56.1697
68.4053
80.3329
30.3148
47.1663
52.2171
44.0015
64.6464
93.956
54.8469
19.4764
62.0025
83.9915
86.1155
66.9681
52.3974
60.0758
48.8892
47.2101
20.5095
46.7268
59.9875
55.4684
47.8639
40.9914
58.8674
20.2661
82.5192
29.3263
66.4749
91.5388
43.0466
64.8645
45.0938
30.6855
32.8449
33.6304
79.7304
68.2191
39.1406
46.4727
89.0401
63.2763
81.2266
27.1904
100.4825
23.2887
85.2913
67.7793
47.9374
54.3973
48.5495
62.1576
66.6482
46.3753
63.9359
91.0333
92.3187
50.1376
58.3685
54.1647
108.0775
42.4154
47.0413
37.4646
58.0842
107.7776
61.1502
59.0515
45.4523
34.7884
34.7535
71.8311
86.3739
32.6526
23.9593
20.5748
82.4602
80.5285
68.2528
60.6199
62.3351
36.4576
58.7562
48.892
51.2025
42.2397
72.7962
81.3725
47.1928
52.1232
18.7077
45.1544
50.4727
50.3811
86.4359
67.0094
68.8644
71.2735
85.1118
28.2735
66.0619
68.3842
21.3775
25.5747
40.2678
56.6323
50.5412
58.815
50.7118
58.061
45.8453
56.498
33.1956
31.9013
29.457
88.704
52.9428
37.0447
45.137
67.5806
43.9045
38.915
26.34
26.4528
47.2508
57.2673
46.434
53.2535
41.956
34.5747
46.7675
43.5867
66.9014
34.6836
44.8541
40.0378
32.9452
29.0203
34.2266
29.3106
31.3216
31.0275
39.1489
41.4429
35.1399
38.9702
40.6709
41.6988
70.8518
26.9622
30.046
46.1786
42.9229
30.5338
49.4309
22.6984
94.8207
53.067
54.797
6.169
1.8233
5.7281
4.6547
3.8566
12.0587
16.6983
12.5463
16.3705
15.6641
11.7159
15.2215
14.3244
14.6722
14.1823
9.7156
10.9494
13.6548
8.4212
8.3338
7.9291
8.7551
9.876
8.9728
19.4338
6.6301
12.3093
6.2399
2.1607
6.0912
5.7234
11.4611
14.054
36.6055
33.7636
28.7911
5.4598
10.984
9.6143
9.9751
9.7035
12.3159
18.3967
16.5621
14.2014
15.7167
17.2195
15.1628
12.8481
12.0432
13.9258
13.8321
24.9897
28.0261
22.6913
21.884
9.7058
18.0346
19.2104
16.3532
11.9166
3.0631
3.3243
3.9051
2.7883
12.9321
18.57
19.602
21.6264
19.5918
5.0225
8.7851
6.8296
7.1499
8.2471
15.2027
17.9503
16.4765
13.3222
14.2114
9.9272
11.4891
11.4463
12.836
13.2677
6.1477
-3.5981
-2.484
-0.95254
1.7067
4.6163
-0.25146
2.5101
9.2747
9.6813
8.8596
29.751
24.1014
15.6895
27.344
24.5296
10.6326
10.1103
11.0088
12.1995
10.2794
11.1206
13.034
5.5295
4.3642
0.53583
-3.1892
2.6412
4.8203
4.2608
2.291
19.5752
14.6659
28.1864
26.5863
7.3518
-1.9927
3.6732
8.8112
8.528
7.3078
4.8417
4.3454
28.9411
26.3386
22.2563
22.2588
22.3309
12.3298
4.8804
3.7611
2.5175
-0.58323
4.828
3.5369
10.8113
16.5194
16.5021
11.531
10.4536
11.7453
13.5239
14.3626
9.4832
5.4451
10.2355
10.8756
8.9294
10.2324
7.7697
9.3089
28.2847
30.7098
6.5606
3.5255
7.8666
9.2339
7.2838
7.3287
6.3536
6.546
9.375
9.9497
14.4745
9.9599
10.8474
9.9188
10.7392
12.0809
29.1384
9.4167
14.6633
17.6453
18.745
13.0772
16.0911
14.0272
17.1402
18.9494
14.4876
17.4511
9.3302
13.4368
16.5813
14.3781
17.6908
27.4966
22.6046
29.1587
34.7088
9.3099
9.1181
34.8755
33.7928
1.2953
3.563
15.4223
17.6313
12.6141
14.8127
15.9373
23.2319
13.1362
15.8601
15.7136
15.5793
32.9002
24.4273
10.1216
9.1577
19.9594
22.6907
20.0723
19.1142
19.9248
20.9258
16.7909
12.4396
11.5898
7.4113
13.5225
11.6245
13.1756
11.21
22.8229
23.5243
17.7114
25.6827
24.047
23.9214
22.03
21.5216
17.3246
13.4026
14.706
19.5272
9.779
6.2357
11.3147
10.9027
14.3052
11.6903
12.0817
11.9885
11.7184
13.0476
12.7859
-0.26293
-0.2749
0.20176
1.4311
-0.76877
12.3188
12.8155
15.1845
6.7632
-0.81327
3.7826
11.6572
14.1757
17.2888
12.8945
12.3594
13.4142
13.9753
14.5124
13.7564
3.0576
5.5636
5.7971
7.6582
14.0448
2.6586
4.9567
6.3929
5.4159
6.2674
5.828
7.5109
3.7584
10.3306
8.3869
6.7397
7.1216
13.9896
8.6487
19.0848
20.2457
26.2493
22.6062
22.7961
22.7817
9.0202
9.2994
14.66
9.5079
9.1792
10.5413
10.6886
11.5527
27.2061
21.7555
26.3167
20.7773
23.7461
23.8509
24.678
24.5541
16.4203
22.2167
10.8377
5.7607
10.2944
14.3145
18.2931
16.815
19.3977
15.9567
16.7998
16.0703
17.1174
9.9719
21.3031
37.4574
7.5267
9.612
7.6133
9.4329
9.2429
7.8217
8.7235
8.1731
31.3197
27.6121
33.8442
36.7742
32.306
35.3379
30.3329
33.4563
29.8086
22.5795
33.5414
31.2091
32.7898
30.2064
11.6334
17.3168
23.2662
22.7167
12.6406
16.8101
15.0121
18.8238
32.526
30.0749
13.6514
14.9027
29.4375
-1.5204
0.030291
-1.048
1.3873
0.35835
7.8022
29.0863
18.3089
13.358
13.7713
15.8227
26.3085
20.7337
23.9427
19.9556
25.6481
20.2992
23.3314
36.0578
10.3726
13.4927
11.024
12.4448
32.2897
-2.5719
5.7597
5.0012
1.1246
6.7359
2.5494
6.0365
7.3875
6.9231
7.3841
6.1344
6.3081
7.4584
5.4588
6.6596
5.1961
7.2009
6.7088
7.8215
7.1222
34.6367
24.0446
32.0214
28.8177
8.8126
13.1626
7.0804
10.1055
10.1342
9.8751
13.2966
4.0676
11.263
9.9563
9.4865
11.0357
13.9328
12.9733
15.1357
11.5792
11.3308
7.6531
7.613
7.9997
12.8685
7.9299
12.4567
20.8881
11.5121
14.8799
25.7106
18.5748
27.0817
23.3435
22.1687
17.519
3.504
7.9384
5.1295
6.7542
5.8852
3.2185
3.5142
-3.1542
1.0058
1.9763
3.484
3.1484
-1.2442
3.7341
3.2627
4.1487
4.3235
4.7476
-3.9884
7.2726
-1.3965
2.611
5.1537
4.2727
6.2192
5.7479
3.786
12.5906
8.1878
9.5405
14.6953
12.8373
4.4978
1.0349
6.1775
10.8702
12.202
6.644
32.0757
25.5951
9.1258
0.37714
-0.18317
-0.16059
3.008
3.4841
0.78978
27.6643
12.5843
1.5039
1.5672
0.68909
2.3539
4.6853
8.601
5.8277
12.5186
22.7245
28.2055
20.9463
14.8362
21.32
17.9995
7.5058
22.8371
22.1436
19.804
13.5291
15.8737
20.5792
23.5132
28.7714
16.6778
21.5397
25.7848
25.3504
19.6324
22.8829
21.5453
23.939
13.8889
12.6537
20.2385
16.94
25.33
29.6347
31.3519
31.6547
24.0758
27.3388
27.8086
30.4812
29.4607
15.3054
15.5039
14.9562
20.4945
23.0618
20.3429
18.7018
21.7595
14.5844
26.2816
14.5919
14.5537
15.5069
16.1562
8.239
10.4238
20.3097
30.6449
30.0585
26.6719
26.0504
21.4667
25.1835
26.9762
25.7255
27.3664
11.9711
4.5033
18.9014
6.0396
7.1677
13.0502
9.8222
14.9176
3.9739
-1.651
-1.2231
-0.72948
0.27109
1.15
3.1521
0.72676
16.4234
18.5329
19.3995
7.5968
7.4667
9.7354
8.1305
6.9584
8.2473
22.6412
20.62
31.6158
31.0405
10.871
3.3909
3.6976
13.6203
11.0721
10.5307
7.5995
6.3379
3.6782
7.2861
5.1328
6.6064
13.2288
13.7739
3.7263
9.4683
3.6215
10.5397
8.9572
8.8222
6.2258
6.2126
29.855
23.0942
26.7166
27.9563
24.9402
28.2611
27.0702
28.1459
11.3823
8.3424
15.4642
10.9125
12.5067
15.0821
13.6097
19.8862
6.2214
16.4424
16.5941
13.5321
15.1913
12.8654
12.232
18.3849
5.5878
11.3803
8.8981
6.0429
5.8824
1.0819
1.3725
3.4081
4.4816
4.8087
3.4238
-2.4263
-2.3196
-0.81932
2.1987
1.4348
10.0272
12.4125
-5.0929
0.83464
9.2993
4.4724
10.5925
7.7116
13.493
17.4228
13.1622
14.8042
23.6194
8.5834
8.6766
8.3007
7.897
20.4065
28.2787
19.4773
25.2959
27.3985
19.9489
18.9955
17.2153
17.7322
17.0463
17.9949
14.0727
19.825
22.9126
25.1473
14.3821
18.2997
21.9848
17.582
21.3727
17.4769
31.1936
39.8138
32.3072
31.1445
32.1472
29.8587
35.383
32.7937
-0.70265
-2.0104
0.3468
3.7239
0.053594
1.7968
12.9594
1.8917
0.26756
1.2869
5.1103
8.8104
6.4599
4.4306
5.9913
8.0251
5.4995
5.3941
5.1863
6.3201
27.9697
9.794
17.2616
10.8726
7.3931
9.8777
9.2097
11.8553
11.3569
8.8983
7.553
6.8301
6.5783
10.3403
29.2802
18.3398
15.9023
13.4978
15.5167
9.9862
10.5462
10.3106
8.0156
9.1221
8.7608
9.7793
8.9328
18.7023
26.3814
21.1744
23.5759
10.7012
10.8843
4.124
9.2619
11.3824
9.0371
10.5872
8.7255
12.3819
1.418
1.3863
1.4534
8.4055
5.2361
4.3987
2.2805
26.9201
30.1022
29.9275
2.0118
18.1804
5.2721
7.1281
6.528
13.0475
23.0276
12.1735
26.0437
20.7069
20.2095
24.0722
18.1506
22.4421
30.4985
28.9943
26.1199
23.4357
10.6316
13.7575
12.6361
33.6486
11.4386
10.6043
11.3232
2.3108
2.7879
7.2329
7.4852
6.9452
30.7767
13.5645
23.3048
19.9231
11.7285
14.691
11.9254
19.7441
18.6509
6.1945
0.32663
4.7147
3.1717
9.1043
5.9475
6.9828
7.0368
6.1308
7.2394
13.692
16.9029
-9.372
3.4684
13.2058
6.7953
14.2159
7.7618
7.4498
6.5699
-0.96382
-0.3788
7.1509
2.7833
7.1274
6.0843
17.1359
22.6616
19.1062
15.1364
29.3482
31.4952
21.7706
22.1846
19.7671
24.2713
24.6944
22.9383
23.3092
22.2482
21.9124
18.7897
22.6071
12.0035
10.0668
4.9119
8.3391
8.9034
8.3511
6.5219
8.0503
26.1358
2.8552
6.7898
5.3675
7.2178
7.1146
7.4636
5.9383
5.8043
3.683
3.4346
8.0788
6.0607
5.2106
7.9521
10.3761
7.6322
-0.11182
7.6321
5.2736
4.9768
7.2236
4.4308
6.5825
9.8143
14.9468
11.7294
12.2572
17.6667
11.7419
14.1529
7.8572
11.7592
12.62
15.6691
13.7219
9.9013
15.1829
11.6962
-0.49365
-0.38015
-0.41095
1.0716
-1.0259
1.323
7.8822
7.5721
12.0719
10.8078
8.245
14.2766
17.4387
12.6534
11.4801
13.0892
13.5695
15.3059
28.9777
20.904
30.623
24.8055
25.2855
23.2801
27.2836
28.056
14.1207
8.6886
10.0022
8.6913
8.6614
9.0495
10.0625
10.1922
20.2244
23.1212
25.4586
30.3923
26.7042
24.2983
21.4505
25.1448
17.0855
21.5676
27.9084
23.9407
16.1034
21.0712
13.4572
1.8832
0.21921
-3.5802
11.1737
2.434
14.9746
21.5243
19.4159
16.9727
18.6702
18.8084
13.5055
5.1091
11.6623
14.0837
11.3414
10.2795
6.081
1.7308
2.2458
8.372
7.1057
6.391
4.66
4.3452
3.5929
13.8914
10.4121
7.2001
16.8381
8.9028
23.534
16.515
9.8792
19.7627
24.5558
17.5382
21.6382
15.164
18.583
13.2402
8.2171
16.6992
3.064
9.9424
7.9128
13.6582
14.5258
9.6201
9.9799
14.4945
11.3114
10.017
11.5947
11.362
12.5843
-0.030807
-1.6916
-2.6713
-1.2154
4.4903
1.3337
2.957
8.4336
2.779
6.7154
6.6053
4.5375
6.8667
5.0049
9.9553
8.7109
7.4469
7.7855
0.43588
0.95725
8.1442
5.2399
1.3893
3.44
11.9843
9.9184
11.5276
11.8832
13.7753
9.9301
11.8413
11.2941
11.7602
12.636
11.3397
12.0558
6.054
9.8998
8.279
9.7226
36.6547
34.4139
38.3248
18.208
15.1481
18.4468
15.9419
16.3952
19.8874
16.0874
10.0892
11.1978
8.0104
3.5334
10.4032
8.5679
8.6337
11.9481
12.5621
9.576
6.8709
1.0995
5.6876
5.4835
5.586
-0.56917
-0.98179
5.105
3.8783
-0.29471
1.1551
31.824
22.1096
28.3334
26.0263
26.7822
4.4836
3.9594
8.9061
5.641
5.4702
7.5423
11.1156
12.4418
13.1249
14.159
2.7807
5.713
3.9662
5.2563
4.6929
7.7826
32.0325
10.9106
12.4104
11.9402
14.3876
13.1693
12.1813
12.8287
11.8915
32.3466
36.7307
16.7269
7.1622
11.6382
12.286
12.0668
10.5291
10.8522
4.7283
9.461
6.7911
11.8715
11.3292
12.0158
12.2514
13.0885
13.4012
7.0132
4.9742
3.2312
3.6538
3.9578
3.2457
4.1996
3.6334
4.884
3.3405
4.4539
6.2574
2.0463
2.4597
3.2252
4.3373
9.6826
11.2865
5.7796
5.8824
5.1581
5.2739
2.5185
0.52887
5.2837
4.7693
3.6447
3.6396
17.0618
13.6326
31.4814
34.4207
27.0497
27.5749
35.7187
6.3461
4.9125
11.8863
6.1163
6.5991
6.452
1.0711
1.1677
6.8435
6.1053
4.11
3.8822
-0.50172
-0.51282
5.431
1.104
3.8799
7.9396
3.9872
10.74
10.6065
8.2477
10.2099
8.0154
9.5124
10.1145
12.0801
12.1521
-0.74515
-0.17694
-0.4735
6.5906
4.9383
2.6799
0.056801
2.6233
10.7577
9.9841
16.6746
12.3165
10.159
12.3452
11.1217
12.6897
13.9779
18.462
14.7378
17.1485
4.6578
9.6416
7.8134
7.279
9.3079
7.9164
24.725
25.3637
25.1296
28.0533
41.482
33.8895
10.9928
11.4139
39.2462
36.3963
40.7938
40.5777
36.1754
39.3409
18.2412
25.852
27.9488
25.0947
13.4523
22.0312
34.1161
31.3927
32.9425
28.9452
29.9005
15.2322
35.2012
14.8674
16.9231
15.0808
33.3775
39.3514
34.9986
26.4025
32.1606
30.9811
41.6323
39.0373
37.8532
19.9969
14.6909
15.461
32.4334
30.1111
24.4323
14.5982
17.135
14.1793
15.7814
15.2291
17.0169
16.7946
18.5372
13.6855
14.5103
40.352
47.2149
49.7648
27.4175
23.5746
26.343
45.918
43.1641
44.2788
22.5654
20.7419
22.0472
21.6294
19.7515
26.7882
22.1679
21.776
22.0113
29.046
36.4516
31.7533
33.9214
16.555
17.0612
17.2713
16.1346
30.5331
39.4864
38.5795
43.6811
41.9278
41.4343
20.8498
13.1116
12.1497
17.3154
23.1638
25.2245
26.0102
26.948
43.022
18.869
18.5164
15.8935
16.673
32.9768
41.5924
38.9274
41.713
42.8071
31.308
27.2171
41.0155
29.9413
43.1563
37.4985
36.0515
30.0115
30.881
13.8258
30.0638
34.1216
32.4733
19.6678
35.5343
38.3073
16.4896
24.608
20.5146
22.6087
24.0835
16.1104
14.1065
14.631
22.9762
50.5776
51.3415
28.0132
31.3756
30.6018
10.7856
9.3891
9.5967
17.1961
11.4654
12.44
26.8038
28.6962
14.5548
13.7327
33.4969
32.405
21.9398
24.0807
18.7278
13.834
27.332
27.9219
11.4558
13.1444
22.357
22.2131
31.6785
14.7032
15.0061
33.5653
31.7748
11.1293
18.5096
18.0353
16.6506
17.3705
36.8577
12.4914
29.4445
27.5081
18.0009
16.3003
27.8889
26.6705
27.8616
20.109
21.7786
36.2624
33.2078
15.3708
15.6225
27.526
207.3006
212.0551
219.6984
212.2697
216.7927
203.9506
344.106
249.1785
492.5306
411.822
216.2379
494.676
198.5757
508.0252
118.1343
505.9055
512.8419
240.9625
245.9176
243.4977
244.7163
242.4942
244.7722
421.0219
424.2062
175.8632
177.4024
212.4458
399.3599
400.5138
149.0958
217.7194
401.7347
402.126
433.3282
485.7193
490.6903
490.5404
472.1027
70.5214
236.9471
148.9877
242.3322
321.017
513.9823
510.5597
518.8348
254.4362
251.1422
518.6353
242.299
245.1416
495.112
489.1253
496.4345
543.7796
492.6227
231.1655
231.501
227.7885
230.0415
229.9794
232.0095
235.4034
238.2053
234.6701
214.0214
398.1071
400.5757
385.4697
388.8998
241.9418
388.1421
391.0516
243.0723
188.5297
484.9062
480.9667
202.4575
193.4107
194.9108
191.2832
194.6953
192.1048
402.145
391.9386
397.362
394.5982
403.3407
395.3236
227.1593
611.0023
612.2307
620.6046
195.621
198.9374
225.6064
228.4857
222.6564
219.5096
223.6681
224.547
214.3089
221.5845
227.9066
227.0731
226.6485
216.0242
215.0727
213.6323
255.1697
212.1155
218.199
239.5407
242.7911
422.4492
139.5581
235.6464
237.796
242.4739
239.0646
239.3009
246.1964
238.2602
241.8395
235.7266
246.8244
219.6253
146.7138
229.5921
231.9295
234.9583
242.6434
243.8971
245.0111
224.65
230.9335
291.5499
288.8917
245.8944
245.9315
233.5338
230.0742
241.9525
135.1525
233.5256
231.4181
138.9588
233.2076
237.6018
192.4231
236.1149
237.279
233.6312
225.4789
219.6993
221.0456
216.066
213.1315
234.2862
215.829
228.4185
233.9874
229.4971
220.1576
219.8419
216.4668
228.7227
225.2833
217.0607
208.526
211.2595
428.5645
433.4275
217.5311
211.6554
239.8607
215.1989
219.0552
218.1975
234.8697
231.7352
632.7569
608.2943
230.4872
239.1406
237.1206
234.6305
236.791
229.265
249.0512
237.0796
239.2202
234.9298
209.7897
215.3922
240.9832
227.5315
200.8656
208.9256
170.6674
172.6076
244.3728
219.7643
209.7276
247.9677
247.6035
104.2199
228.1687
262.6799
234.6858
518.7451
511.3161
511.8443
515.3258
160.3588
228.1918
157.7299
248.4146
250.3103
611.2595
227.3806
240.2632
224.8484
224.787
284.0996
284.2029
296.3611
297.5803
361.1902
253.3253
322.7073
237.3109
294.2536
297.5812
235.5119
620.717
228.2214
340.1922
242.2775
294.8583
303.1096
211.6225
210.8351
235.6906
242.4993
218.6753
217.9152
215.6264
223.0803
148.8579
216.6296
224.7899
223.1234
302.3059
342.9245
249.9595
116.4463
245.3117
240.4552
257.4113
258.8314
258.9668
260.2141
269.454
271.412
264.592
266.7457
263.7288
92.8636
221.8555
264.0695
262.3071
301.0221
505.0481
339.2954
630.7919
239.1919
240.3721
225.3596
225.0244
277.7718
272.6532
273.0689
277.6337
238.2026
279.2165
283.0578
235.5783
110.4376
283.8388
285.7728
223.4288
222.1513
154.5717
515.8493
515.3687
513.2951
521.2852
512.3347
499.7077
506.5176
521.1798
198.2122
190.5718
328.2029
332.1625
225.2564
272.0889
269.411
254.0962
257.8103
261.7504
182.8613
184.4355
194.9784
186.3864
188.0071
188.6495
184.5344
192.5833
187.9123
189.5725
195.0806
194.3992
273.956
248.2901
606.8418
199.7684
134.8258
200.2372
197.3343
199.1313
201.0593
200.8446
140.8998
103.717
93.4044
96.2569
209.5205
212.5321
215.1207
217.1991
212.9431
196.4676
217.058
206.5498
242.1094
230.0279
217.5587
223.6169
215.5815
216.8057
212.6883
223.7145
217.8984
110.7342
214.0652
226.5437
222.8528
216.0149
217.9046
197.2575
210.6763
260.5897
181.9365
176.8807
206.275
232.9491
238.2846
236.2039
523.2211
221.3073
212.5321
204.7261
228.3317
307.9755
228.7394
225.9585
237.78
494.0368
192.3773
220.2424
220.5572
211.4258
245.2138
231.8794
221.0697
200.7713
173.5199
179.4276
490.0926
224.3269
175.6591
214.0868
201.1954
259.1636
259.767
195.5129
252.3459
204.9727
225.6999
197.1187
265.3657
255.066
267.2352
258.1936
138.0366
204.1125
199.5234
152.8747
209.3392
108.3349
229.0981
231.0028
244.7037
198.8815
198.8163
214.499
213.8401
209.1562
217.4366
229.9193
220.2917
350.442
228.0487
227.4525
207.9665
230.151
237.1284
236.726
210.1126
193.227
146.0147
185.5624
157.3346
478.6056
257.5361
257.9614
254.6528
254.9244
228.0031
217.9886
239.225
230.8364
220.3966
246.0861
243.159
293.8756
238.2915
234.7522
225.9311
525.2089
228.3404
222.1859
236.3418
290.8847
291.2628
233.9114
235.5828
292.8311
295.2245
294.4461
241.5768
239.1083
227.4791
235.8654
307.0793
165.8143
391.4276
210.4465
311.7793
389.5959
386.2838
222.8755
219.7393
214.9208
248.6881
291.6558
292.8818
216.5344
248.863
303.3438
225.5654
181.6315
212.6554
498.527
433.262
190.3815
237.2662
322.4334
306.8362
247.0855
251.1937
248.3166
226.0451
249.5467
249.8007
229.8897
261.3796
384.208
311.8148
242.6628
210.2602
205.1257
621.38
227.966
228.4949
211.7046
245.0631
214.1617
242.6104
226.0954
229.2273
230.3465
621.5929
244.8207
240.8782
253.1306
303.6324
295.6051
293.5347
300.9399
301.2713
298.6986
301.1535
300.8414
294.0111
205.0409
171.0921
257.7305
224.0175
224.2447
288.7061
222.2421
223.9351
225.7311
214.0993
202.4534
223.0006
226.0203
225.4273
211.1433
223.6486
248.5732
220.1139
221.7855
310.5368
306.3665
320.9321
243.1907
337.8204
221.5848
277.6737
524.4203
220.6915
269.9086
369.196
206.7723
234.2361
340.1808
490.0994
483.4203
484.1312
493.2736
237.704
497.5419
483.4977
490.728
240.6846
495.6899
483.5899
132.686
161.2526
161.7571
162.3589
132.1668
192.6266
221.623
343.7887
405.5778
499.0995
554.9607
552.0652
362.8881
367.9484
360.3854
355.7961
235.5832
235.6651
256.0486
252.0825
222.0303
266.702
209.7066
230.1153
227.4415
283.4232
282.8746
278.7785
258.2932
227.9259
97.4315
97.4567
221.6424
217.1503
284.1488
243.8149
277.7926
204.7751
544.9116
76.1043
208.978
93.0638
93.2105
206.7859
250.0493
201.3064
534.1461
540.9646
205.451
207.4571
198.0473
203.5708
540.6384
539.645
403.5388
246.6291
539.4718
536.1971
531.9894
528.5691
271.6501
198.3307
232.4727
419.055
197.6505
201.8657
234.9645
222
226.7635
248.4876
526.2996
227.2752
221.7075
224.0808
347.6308
256.8152
235.9046
327.499
225.0732
204.1158
257.1174
226.8
219.3742
218.4832
243.364
211.9776
221.4106
148.1878
209.6629
192.0579
262.3821
213.7203
199.865
217.3231
212.8233
141.8893
257.3926
190.7813
190.5504
195.9706
203.3757
217.186
297.898
244.0264
471.9871
231.9742
191.3933
194.7185
545.9442
216.4837
228.6918
203.806
409.4554
209.0185
232.5448
215.5293
253.7649
223.3027
204.4774
221.1066
532.7284
203.6616
259.8522
205.5842
265.1536
206.2
260.8181
211.2019
178.7235
217.3419
232.8261
251.511
250.2411
249.7697
246.6988
244.0862
234.218
168.3679
257.8217
246.0042
221.7021
215.8177
197.0747
194.9787
201.7275
196.8667
201.0063
229.0897
222.1391
218.2357
216.7925
200.1711
193.8432
308.8698
240.9246
215.4955
232.5758
232.6428
192.8928
171.1678
168.9112
187.1478
201.084
343.9918
132.5393
140.2688
197.8479
185.5411
223.9944
166.7321
204.8506
216.9113
220.4553
215.839
264.3961
200.4748
500.7513
162.6496
181.5754
199.4714
208.908
208.0249
208.0543
286.7694
133.566
198.5272
141.3653
232.6938
215.7541
234.7056
248.5193
175.0439
220.7008
193.3379
192.2408
187.2247
226.3104
217.6006
190.8991
275.9261
220.31
226.3659
214.4786
341.1221
214.8308
269.9058
326.8087
214.4359
215.6379
217.2305
229.8011
217.2466
214.9493
206.7423
417.1257
246.0411
328.4565
231.1718
243.4191
191.9469
221.4934
255.7623
231.1913
234.8364
219.2901
172.6012
311.5317
251.5267
244.8022
231.3049
281.1627
210.7383
230.6139
257.7262
204.8628
498.1186
514.3206
500.5588
223.4839
219.6256
227.1403
210.5864
218.9457
292.6807
223.2465
294.14
277.255
293.724
290.9752
290.2249
298.3866
218.6523
477.159
222.0519
297.6102
203.2088
220.1189
256.5354
269.751
516.3907
225.8091
223.3277
222.1449
93.9283
271.7788
220.2175
219.5295
493.6624
311.9126
331.6198
308.7327
229.3542
213.8995
170.3789
306.1239
312.945
305.9138
304.8814
308.553
291.912
290.9146
289.4978
292.3213
464.0947
467.7645
471.9054
395.0306
476.3343
477.2258
474.2896
471.6037
467.0135
464.7842
470.6925
300.3369
297.7922
328.8359
393.1094
258.2822
216.5347
412.617
215.6611
409.1583
222.664
113.2828
120.6931
125.6356
118.749
112.33
118.2861
238.0532
152.1368
200.4965
193.2341
180.5529
243.4475
199.361
229.0547
549.8535
229.6137
214.1599
211.4223
233.2101
203.9003
206.6175
267.4249
254.2321
505.8709
200.6604
201.1286
247.412
199.762
194.9795
127.1905
126.6995
210.7445
200.955
200.3926
271.8922
242.2248
246.8821
236.53
304.9155
252.968
257.0656
168.8258
240.9378
214.3835
527.1391
247.2874
222.7327
242.5867
354.7178
348.7361
345.2381
341.647
223.8477
221.2286
345.5602
350.7515
254.8708
204.9598
226.9632
207.0662
258.6313
209.941
240.6605
232.1024
300.2292
318.1652
309.0696
270.8222
601.1358
608.4503
259.713
268.9215
297.4599
492.8562
254.3854
298.2047
93.8247
276.0079
280.5438
227.1257
606.0197
271.857
219.4265
104.3795
58.1355
316.7369
306.4198
206.9981
307.7047
230.2127
223.2175
300.5151
339.5
339.8247
340.5039
341.1988
226.2277
229.9083
231.2471
196.8024
218.0973
213.1946
294.038
329.5288
327.6772
312.2113
312.6707
301.7868
300.8593
319.7511
302.8592
292.4611
227.1574
304.7299
303.6534
327.1141
293.667
297.2716
322.7967
311.6205
314.6661
302.3946
510.9409
528.6596
617.8045
619.2798
288.5009
294.4503
397.0134
291.3074
225.3471
384.3342
385.3774
495.8694
347.5893
311.3575
218.814
353.0613
352.2512
331.7452
336.0165
340.0059
341.9873
120.7467
254.7504
343.4376
365.1606
316.2071
348.9538
319.4192
343.278
346.5728
333.4661
319.2192
148.32
240.3015
234.2613
233.796
197.1552
385.1375
395.6294
610.8582
235.8415
389.261
539.7363
244.6356
388.0051
545.3407
540.7094
545.0182
545.7209
201.7379
197.9497
194.5532
342.9342
322.5106
196.5104
286.7582
228.7351
249.0973
200.3958
217.2927
204.8553
276.0859
179.2543
232.404
188.6194
225.5177
224.9445
360.3338
490.283
237.9421
484.7757
277.7526
620.1002
193.7674
238.6691
221.2177
263.0959
267.5369
315.3944
231.0659
230.2521
291.5645
278.9253
271.6859
91.7985
224.087
229.8337
370.9435
233.7784
199.1598
229.1901
280.7743
175.3469
295.4381
286.5192
174.9066
298.7577
294.6613
270.9524
632.6279
218.9932
299.3598
300.7828
491.6891
488.4613
488.5784
485.3842
437.0624
466.9306
295.7679
556.4684
198.1652
562.9651
562.7134
556.6831
583.6812
574.1241
581.1877
573.1442
585.7022
583.9477
585.3403
484.7374
491.86
194.3379
248.431
243.8853
193.4565
194.7702
232.7472
272.8964
425.9064
197.632
490.4151
531.6463
282.6092
543.7164
212.5346
209.1174
122.173
117.3385
124.4922
121.9145
397.2329
115.2882
230.7036
155.4895
226.1181
238.527
117.5164
107.4183
205.0087
421.2589
264.0698
268.5139
275.8276
270.631
217.1345
262.3964
424.3854