/*--------------------------------*- C++ -*----------------------------------*\\
| =========                 |                                                 |
| \\      /  F ield         | OpenFOAM: The Open Source CFD Toolbox           |
|  \\    /   O peration     | Version:  v1706                                 |
|   \\  /    A nd           | Web:      www.OpenFOAM.com                      |
|    \\/     M anipulation  |                                                 |
\\*---------------------------------------------------------------------------*/
FoamFile
{
    version     2.0;
    format      ascii;
    class       volVectorField;
    location    "1";
    object      U;
}
// * * * * * * * * * * * * * * * * * * * * * * * * * * * * * * * * * * * * * //

dimensions      [0 1 -1 0 0 0 0]


internalField   nonuniform List<vector>
7155
(
(0.0024653 -0.0046114 0.020919)
(-2.5073e-07 5.9419e-07 -1.45e-05)
(1.0009e-06 4.7993e-07 -1.4471e-05)
(-0.0096613 -0.00021639 0.013629)
(9.2409e-06 -3.414e-06 1.0331e-05)
(-0.029922 -0.001606 0.02389)
(1.438e-05 2.1878e-06 -4.8003e-05)
(-0.022833 0.002767 0.075708)
(-0.027822 -0.0036534 0.036562)
(-0.035461 -0.0055955 0.079141)
(-0.028431 -0.0058237 0.077769)
(-0.031333 0.001051 0.033933)
(1.5199e-05 9.6994e-06 -2.8719e-05)
(-0.019151 -0.009348 0.026642)
(-0.04296 0.0024663 0.0902)
(4.469e-06 -2.1848e-05 -0.00046059)
(-0.038915 -0.0039893 0.093572)
(-0.04714 0.0076603 0.074601)
(-0.010531 0.025381 0.038947)
(-9.9664e-06 -2.2879e-06 -6.6705e-05)
(-0.039411 0.010172 0.077275)
(-0.035519 -0.0025838 0.075584)
(-9.9592e-06 -4.6497e-06 -0.00014552)
(1.9374e-05 -1.4676e-05 -0.00017705)
(-0.060767 -0.029958 0.101)
(-0.070733 0.0012589 0.12554)
(-0.050219 0.020082 0.11359)
(2.6818e-05 -2.8266e-05 -0.00013687)
(-9.9958e-07 4.1125e-07 -2.1937e-06)
(-0.00034306 -0.0096921 0.021491)
(-0.0032421 -0.0020505 0.021745)
(0.0023688 -0.0026375 0.02626)
(-0.0023228 0.0010266 0.01626)
(-0.0049293 -0.000825 0.033237)
(-0.013657 -0.015673 0.10542)
(-0.01333 -0.015514 0.10291)
(-0.011197 -0.017135 0.10925)
(-0.010128 -0.016401 0.11108)
(-0.010893 -0.016334 0.10697)
(-0.016571 0.010179 0.052132)
(-0.053138 0.0089977 0.087088)
(-0.047927 0.013668 0.079322)
(-0.015764 0.0046529 0.046389)
(-0.0070224 -0.010702 0.061354)
(0.01242 -0.012081 0.028312)
(-0.022768 -0.0099285 0.086399)
(0.0087546 -0.021591 0.024725)
(-9.9409e-08 5.9955e-07 -7.0196e-06)
(-0.0077895 -0.010674 0.043998)
(-7.2598e-07 3.3748e-07 -1.7193e-05)
(-0.015493 -0.011336 0.097835)
(-0.030598 -0.0033388 0.0057454)
(-1.3578e-06 2.9822e-06 -3.5402e-05)
(-0.0058402 0.0018213 -0.00072456)
(-0.015457 -0.0061054 0.0067734)
(-0.013073 -0.0050505 0.036427)
(4.8732e-06 1.5327e-06 -1.3221e-05)
(-8.319e-07 1.5909e-06 -3.0646e-05)
(-0.017123 -0.017698 0.042502)
(-0.0043737 -0.017525 0.10952)
(-0.0061315 -0.017196 0.11359)
(-0.0060609 -0.014229 0.10347)
(-0.0076818 -0.015654 0.10643)
(-0.0041418 -0.019338 0.11084)
(-0.0066697 -0.016493 0.10976)
(-0.0051563 -0.018295 0.11031)
(-0.0088975 -0.01659 0.11494)
(-0.009078 -0.015951 0.11514)
(-0.0097501 -0.01592 0.11316)
(-0.0041142 -0.01986 0.10865)
(2.944e-07 -7.8017e-08 -2.4086e-06)
(0.0023755 -0.0040319 0.013413)
(-0.0023704 0.00014702 0.036427)
(0.0043821 -0.0015151 0.034318)
(0.0018589 -0.009895 0.0234)
(-0.0046225 0.0049485 0.011103)
(1.4401e-08 -6.4913e-08 -1.3756e-06)
(-0.059455 0.021229 0.13274)
(-0.058376 0.0083079 0.13063)
(-0.036753 0.004618 0.1138)
(-0.068691 -0.0041134 0.10646)
(-0.04616 0.011928 0.10509)
(-0.053419 0.0089046 0.098226)
(-0.038072 0.011788 0.10934)
(1.4044e-05 1.8906e-05 -0.00017691)
(-0.040547 -0.0037915 0.069897)
(4.7103e-06 -2.6752e-05 -0.00015035)
(-0.01611 -0.0010313 0.061699)
(-0.066142 -0.036954 0.096647)
(-0.014984 0.0056622 0.056298)
(-0.018764 -0.015608 0.089286)
(-0.015683 -0.0064091 0.091213)
(-0.018947 -0.023978 0.10172)
(-0.0144 -0.022642 0.095962)
(-0.00086588 -0.0072521 0.052351)
(-0.00013896 -0.018511 0.05116)
(-0.0047283 -0.012407 0.084136)
(-0.011472 -0.011696 0.06823)
(-0.0077884 -0.012182 0.074552)
(-0.0088027 -0.012519 0.054968)
(-0.0097238 -0.011592 0.066356)
(-0.0068597 -0.01309 0.078007)
(1.516e-05 -2.485e-05 -0.00029379)
(-0.052049 0.021192 0.076329)
(-0.056814 0.012388 0.10354)
(-0.022227 -0.010566 0.059019)
(-3.3111e-06 5.0236e-06 -4.3069e-05)
(-0.025936 0.003857 0.044104)
(-0.030403 0.0064717 0.053624)
(-0.010567 -0.0038454 0.04052)
(-0.0029634 -0.0059146 0.041386)
(-0.0088296 -0.0099382 0.063814)
(0.01244 -0.012404 0.072068)
(0.0168 -0.0080851 0.057431)
(-0.0024482 -0.013051 0.0848)
(-0.0025782 -0.0095534 0.090068)
(0.0014114 0.003902 0.017119)
(-0.01868 0.0050842 0.072706)
(-0.012572 -0.0049078 0.0263)
(-0.027417 0.012895 0.082437)
(-0.0061452 -0.015175 0.10691)
(-0.0046005 -0.017244 0.10819)
(-0.00038738 -0.013679 0.10169)
(-0.00026316 -0.01401 0.10313)
(-0.0051639 -0.01559 0.10558)
(0.0077773 -0.0065303 0.079468)
(0.011474 -0.0010657 0.07124)
(0.0088826 -0.010733 0.081516)
(0.015764 -0.0062002 0.079173)
(0.024036 -0.000584 0.072155)
(0.031599 0.0034133 0.067444)
(0.039696 -0.00094749 0.064213)
(0.015359 -0.0032614 0.067752)
(-1.6515e-05 1.2986e-05 -0.00012352)
(-0.012287 0.0068171 0.06506)
(-0.016608 0.0023344 0.063479)
(-0.0033818 0.0069943 0.026147)
(-0.0017519 0.0051625 0.038062)
(-0.024127 0.0078491 0.047608)
(1.7384e-05 -2.0524e-05 7.4561e-05)
(-0.045833 0.014947 0.11997)
(-0.031657 0.0070919 0.074003)
(-0.051905 0.023407 0.10151)
(-0.035512 0.012937 0.076491)
(-0.053844 0.014695 0.11123)
(-0.054922 0.021459 0.11441)
(-4.0982e-07 9.6567e-07 -2.9553e-06)
(0.0012128 -0.003885 0.017087)
(-0.0047024 0.0010661 0.008494)
(-0.0030743 -0.0055131 0.030107)
(-0.003694 -0.011646 0.028793)
(-0.00083366 -0.0005763 0.0079181)
(-1.028e-06 1.1478e-07 -1.6038e-05)
(-0.0058646 -0.0064665 0.056213)
(-0.0094414 -0.0068171 0.055605)
(-1.6872e-06 1.2577e-06 -8.5076e-05)
(-0.0094297 0.0017473 0.029353)
(-0.0090069 -0.0041965 0.037601)
(-0.0080014 -0.0042344 0.038394)
(-0.0086468 -0.01191 0.065703)
(-0.0090906 -0.0091145 0.06127)
(-0.0096458 -0.0096585 0.065716)
(-0.0064538 -0.0092365 0.052967)
(-0.007947 -0.0022482 0.021564)
(0.0040512 -0.0004524 0.026591)
(0.00010642 -6.2468e-05 -0.00016765)
(-0.010512 0.0099593 -0.024508)
(0.0046827 0.010206 0.017068)
(-0.010906 0.0066288 0.027414)
(-0.0073215 -0.0018842 0.010947)
(1.4342e-05 -1.3172e-05 3.2215e-05)
(1.1297e-05 -1.1012e-05 5.231e-05)
(-0.02059 0.010267 0.026112)
(-0.016136 0.01561 0.0069676)
(2.6978e-06 -9.9093e-06 1.6681e-05)
(-1.6222e-06 -6.7217e-06 5.0918e-06)
(-0.055439 0.0063563 0.10762)
(-0.062215 0.0036529 0.12425)
(-0.03823 0.0050614 0.066569)
(-0.047468 0.0023845 0.085157)
(-0.057124 0.011833 0.10253)
(-0.062049 0.015269 0.11665)
(-0.055055 0.013897 0.11765)
(-0.046403 0.010526 0.10872)
(-0.06683 0.009246 0.1367)
(7.5677e-06 5.7611e-07 2.926e-05)
(-0.026013 -0.009045 0.010499)
(-0.015846 -0.003136 0.028858)
(-0.0025343 -0.0015428 0.033142)
(-0.012832 -0.0062415 0.026356)
(-0.012238 -0.0088531 0.026817)
(-0.0036195 -0.0068182 0.020347)
(-0.004013 -0.010009 0.026652)
(-0.00073477 -0.010284 0.015617)
(-7.8496e-08 6.447e-07 -1.9457e-05)
(-5.0228e-05 -0.00026345 0.010747)
(-7.2685e-08 -1.7406e-07 -3.0274e-05)
(-0.0018536 0.0038086 0.010501)
(3.9312e-07 -1.1905e-06 -1.8989e-06)
(0.0026811 -0.00060277 0.0041025)
(-2.14e-06 9.8368e-07 -2.6436e-07)
(0.0017708 0.00020801 0.015896)
(-0.0020003 -0.00049829 0.019324)
(-0.0031292 -0.0058286 0.026658)
(-0.032223 -0.0095787 0.049697)
(1.0969e-05 5.2573e-06 -3.2784e-05)
(-0.04148 -0.0048934 0.079554)
(-0.0092858 -0.019348 0.11247)
(-0.0079349 -0.016263 0.10596)
(-0.0096781 -0.019421 0.11143)
(-0.0080098 -0.017495 0.10889)
(-0.01178 -0.015378 0.11566)
(-0.010656 -0.017889 0.1128)
(-0.00699 -0.015962 0.10421)
(0.00012623 -0.00015235 0.021946)
(1.4394e-06 8.5772e-08 -2.336e-05)
(-0.011226 -0.0027062 0.019458)
(-2.7517e-05 0.005309 0.024387)
(-0.0070873 -0.015704 0.10879)
(-0.0068664 -0.015585 0.10688)
(-0.0084099 -0.015232 0.10338)
(-0.0091708 -0.016039 0.10056)
(-0.009871 -0.014045 0.10041)
(-0.0086731 -0.014211 0.10451)
(-0.010622 -0.01712 0.1105)
(-0.011495 -0.018254 0.11)
(-0.0089691 -0.016417 0.10048)
(1.6041e-07 -3.7945e-07 -2.149e-06)
(0.00073514 -0.0037022 0.015093)
(-0.00025943 -0.0031703 0.025328)
(0.0039748 -0.0015073 0.012295)
(0.0036468 -0.011431 0.021948)
(0.0014844 -0.010454 0.03082)
(-0.0041303 -0.0017377 0.0073535)
(2.7496e-08 1.1592e-07 -3.3362e-06)
(-0.0038643 -0.0089561 0.071228)
(-0.0044338 -0.01111 0.072363)
(-0.0027204 -0.011773 0.067595)
(-0.0022847 -0.011433 0.068037)
(-0.0063611 -0.0073025 0.078618)
(-0.0045453 -0.0090721 0.085866)
(-0.0049599 -0.0080826 0.085913)
(-0.0051907 -0.009488 0.077616)
(-0.059406 0.014802 0.10677)
(-0.069502 0.0033372 0.11848)
(-0.068679 0.013869 0.1218)
(-0.069433 0.0073944 0.12308)
(-0.062469 0.015091 0.10161)
(-0.065836 0.0051039 0.11282)
(-0.057696 0.0067384 0.09965)
(-0.008068 -0.0056813 0.04658)
(1.816e-05 -4.4324e-06 -0.00029005)
(-0.012438 0.0038826 0.046797)
(-0.01767 -0.00094781 0.055232)
(-0.0039883 -0.0085545 0.039388)
(-0.0041011 -0.0090584 0.046077)
(-0.0050108 -0.0093697 0.054533)
(-0.0056556 -0.0067135 0.049258)
(-0.0059528 -0.0056478 0.038962)
(-0.003868 -0.0093565 0.038901)
(-0.0045285 -0.0050311 0.019502)
(-0.0029576 -0.0045171 0.015246)
(0.0022873 -0.002311 0.077214)
(-0.0013327 -0.0032732 0.067974)
(0.0068318 0.0027806 0.0617)
(0.011843 0.00072775 0.050561)
(-0.023241 0.0072773 0.014026)
(-0.023225 0.0016748 0.039424)
(-0.017781 0.019522 0.047347)
(-0.023817 -0.00044823 0.021468)
(-0.014817 0.0092076 0.027302)
(-1.0816e-05 1.2922e-05 -0.0001352)
(-0.017945 0.019765 0.030675)
(-0.013868 0.01081 0.043182)
(-0.0035516 -0.0011498 0.0078295)
(-4.0223e-07 4.3179e-07 -3.8259e-06)
(0.0020578 -0.0086709 0.012735)
(-0.00047208 -0.0080549 0.018997)
(-0.0013365 -0.005659 0.046395)
(0.00066072 -0.0079213 0.036723)
(-0.0018527 -0.0070538 0.054796)
(-0.00097684 -0.010067 0.047246)
(-0.075716 -0.00019299 0.11365)
(-0.07344 0.0090783 0.10987)
(-0.070608 0.0052574 0.12703)
(-0.079 0.00094971 0.11601)
(-0.0057523 -0.010321 0.051808)
(-0.0028774 -0.012019 0.0616)
(-0.0079606 -0.011858 0.070579)
(-0.0059511 -0.011648 0.068866)
(-0.070195 0.016266 0.11828)
(-0.064059 0.013171 0.10768)
(-0.061545 0.0075939 0.11924)
(-0.064099 0.0042717 0.10417)
(-0.051461 0.00079707 0.11654)
(-0.057803 0.0078488 0.11578)
(-0.060364 0.0017787 0.12274)
(1.6672e-05 4.9266e-06 -6.5333e-05)
(-0.018307 0.0034062 0.044972)
(-0.029031 -0.0022221 0.042203)
(-0.015185 0.011976 0.030282)
(0.0075077 -0.0011297 0.010491)
(-1.4276e-06 2.1959e-06 -1.663e-05)
(0.00042176 0.0014895 0.0054961)
(0.0041536 0.0040955 0.016881)
(7.1249e-06 -1.0466e-06 -7.7459e-05)
(-0.021002 0.013144 0.051214)
(-0.034341 0.007379 0.042309)
(-0.017196 -0.010882 0.019728)
(-0.047161 0.0080808 0.088294)
(-0.044957 0.012506 0.076703)
(-0.048434 0.011658 0.086805)
(-0.048198 0.0075343 0.080589)
(-0.049849 0.0021703 0.1041)
(-0.052293 0.0062024 0.091298)
(-0.061418 0.0056486 0.11786)
(-0.044378 0.0061745 0.09215)
(-0.043695 0.0067279 0.07793)
(-0.0044737 0.0050291 0.0099597)
(-0.021789 0.013074 0.050214)
(-0.034798 0.01746 0.045237)
(-0.012025 0.0058507 0.0186)
(-0.012434 0.017286 0.037294)
(-0.046492 0.00053618 0.086106)
(-0.041449 0.011869 0.088261)
(-0.059036 0.008862 0.11072)
(-0.057288 0.012184 0.10584)
(-0.062317 0.015486 0.10631)
(-0.055322 0.012024 0.097924)
(-0.049606 0.0078902 0.097016)
(-0.027196 -0.0047694 0.066025)
(-0.012418 -0.0048863 0.014476)
(-5.4821e-06 -1.1859e-05 -3.4286e-05)
(-0.027677 0.022069 0.0085192)
(-0.02809 0.0097817 0.023382)
(2.1556e-07 -2.7188e-06 -2.0428e-06)
(2.4613e-06 4.6785e-07 1.8378e-06)
(-0.0071776 0.007026 0.018653)
(-0.016949 -0.0013353 0.0128)
(-0.057247 0.017288 0.11182)
(-0.052659 0.017972 0.09952)
(-0.053662 0.016863 0.10422)
(-0.059863 0.01962 0.10986)
(-0.030501 0.016823 0.048279)
(-0.019244 0.0032198 0.041078)
(-0.04111 0.020319 0.095397)
(-0.046193 0.021148 0.092297)
(-0.066409 0.014586 0.11524)
(-0.059324 0.0067905 0.10575)
(-0.068694 0.0014539 0.10083)
(-0.068698 0.007275 0.090462)
(-0.053846 0.0012302 0.085053)
(-0.067686 0.0085519 0.09946)
(-0.070339 -0.0018214 0.08689)
(-0.0014701 -0.0050376 0.089821)
(-0.0027462 -0.0098126 0.083961)
(-0.0017511 -0.010979 0.094908)
(-0.0046348 -0.014211 0.095006)
(-0.03184 0.0052914 0.04163)
(-0.034264 0.0058106 0.056102)
(-0.050629 0.0054422 0.088675)
(-0.053033 0.008926 0.095599)
(-0.048768 -0.00059525 0.060867)
(0.0031689 -0.0014904 0.013878)
(-1.8726e-07 1.6162e-07 -6.1731e-06)
(-0.001356 0.0011674 0.011903)
(0.00067802 0.0044801 0.030982)
(-0.015453 0.0030102 0.059255)
(-0.014334 -0.0010873 0.057105)
(-0.042251 0.0024828 0.090669)
(-0.037874 0.0015653 0.099454)
(0.00031653 -0.0030078 0.017471)
(-0.0020316 -0.003706 0.029168)
(1.0875e-06 7.1428e-07 -8.6133e-06)
(-0.0029035 -0.0055064 0.02643)
(-0.0031464 -0.01014 0.078478)
(-0.0030059 -0.010562 0.075736)
(-0.005096 -0.011577 0.071105)
(-0.0031206 -0.012804 0.063088)
(-0.0035978 -0.013637 0.058694)
(-0.0049145 -0.009255 0.057361)
(-0.0058155 -0.010732 0.070059)
(-0.0022565 -0.012852 0.064034)
(-0.002035 -0.014942 0.063243)
(-0.0011093 0.0034272 0.029358)
(1.1613e-05 -1.5942e-05 -7.8449e-05)
(0.0051402 -0.00087948 0.029692)
(0.0011053 -0.0074472 0.038561)
(0.016105 0.0069512 0.018101)
(0.013365 0.001151 0.031758)
(0.0040662 0.0040637 0.0059443)
(-2.688e-06 -1.2272e-06 -0.00012109)
(-0.00040211 -0.0086603 0.074928)
(-0.0049831 -0.0098326 0.066024)
(-0.0038475 -0.0090979 0.065496)
(-0.0015641 -0.0084019 0.072201)
(-0.0013114 -0.0083064 0.077585)
(-3.3288e-06 8.5998e-07 -7.8668e-05)
(-0.020162 0.0059385 0.033697)
(-0.009988 0.00064277 0.048358)
(-0.0058587 0.011176 0.023243)
(-0.0020034 -0.0090721 0.10117)
(-0.004824 -0.0065639 0.103)
(-0.0061602 -0.0085901 0.099483)
(-0.0052136 -0.0084041 0.086773)
(-0.0080328 -0.011316 0.097278)
(-0.007369 -0.012185 0.10549)
(-0.0078818 -0.012828 0.10591)
(-0.0081582 -0.014388 0.10996)
(-0.003022 -0.0088941 0.092908)
(-0.0050628 -0.0096794 0.094004)
(-0.0058054 -0.0094877 0.09944)
(-0.0040674 -0.011901 0.10118)
(-0.0073428 -0.012829 0.09249)
(-0.0058341 -0.014051 0.094662)
(-0.0050887 -0.0094692 0.096516)
(-0.0070156 -0.012572 0.10351)
(-0.0076239 -0.011631 0.10413)
(-0.0044239 -0.010465 0.083239)
(-0.0040532 -0.011872 0.079843)
(-0.0055627 -0.013694 0.086713)
(-0.0037337 -0.011975 0.069533)
(-0.0039661 -0.010166 0.081911)
(-0.003718 -0.011954 0.072064)
(-0.0076921 -0.014272 0.10014)
(-0.0075846 -0.011981 0.10112)
(-0.0071704 -0.011057 0.090127)
(-0.0048411 -0.01127 0.086579)
(-0.0083494 -0.012126 0.090371)
(-0.0070484 -0.012909 0.088664)
(-0.0075475 -0.010317 0.079176)
(-0.0077246 -0.010809 0.080285)
(-0.0053733 -0.0089439 0.097525)
(-0.0077394 -0.0083753 0.096079)
(-0.0042076 -0.0093398 0.095978)
(-0.0044417 -0.012749 0.089927)
(3.1535e-06 3.8238e-06 -2.1505e-05)
(-0.01565 0.0027946 0.031915)
(-0.017205 -0.012348 0.042189)
(-0.018048 0.0065204 0.019517)
(0.012685 -0.0077342 0.068437)
(0.0068361 -0.0014148 0.063101)
(0.0047282 -0.0011872 0.028772)
(0.0049824 -0.0093572 0.034229)
(0.0015063 -0.0045526 0.0096795)
(-8.3888e-07 -6.0622e-07 -2.4872e-06)
(0.00050448 -0.0025519 0.010404)
(-0.0012669 -0.0012711 0.054104)
(-0.0042416 -0.0049378 0.05948)
(-0.00032362 -0.0040263 0.040102)
(-0.0033151 -0.0070865 0.04713)
(-0.024988 0.0058677 0.059345)
(-0.015878 0.0055591 0.062054)
(-0.024287 -0.00034855 0.066192)
(-0.02725 0.0053377 0.060916)
(-0.024714 0.013945 0.043997)
(-0.013503 0.0058727 0.030935)
(0.0019071 -0.0057966 0.086908)
(0.010255 -0.0045485 0.066105)
(0.0067998 -0.0054695 0.067034)
(0.0033593 -0.0033159 0.075378)
(-0.0023943 -0.0043626 0.08938)
(-0.010874 -0.0056326 0.01735)
(-1.415e-06 -5.0817e-06 -3.2195e-05)
(-0.022974 -0.0050417 0.035148)
(-0.015537 0.006691 0.0184)
(4.9709e-06 -3.24e-06 3.2027e-05)
(-0.020826 -0.0030612 0.031445)
(7.6333e-06 4.5518e-06 -6.5422e-05)
(-0.0095362 0.0020404 0.023005)
(-0.018673 0.0020539 0.031301)
(-0.0076345 -0.010054 0.089268)
(-0.0065466 -0.011522 0.082244)
(-0.0037067 -0.010428 0.080875)
(-0.0067128 -0.013315 0.088165)
(-0.0034852 -0.0071402 0.091685)
(-0.0031038 -0.0074909 0.093889)
(-0.0054955 -0.0059282 0.091959)
(-0.0049012 -0.0050358 0.090729)
(-0.0012434 -0.0056418 0.09087)
(-0.0017467 -0.0073437 0.092811)
(-0.0057369 -0.0079354 0.093872)
(0.00091477 -0.0036178 0.086167)
(0.0048611 -0.0041784 0.077149)
(-0.00029451 -0.004782 0.084613)
(-0.0034113 -0.01144 0.099974)
(-1.1446e-07 9.0328e-08 1.5294e-06)
(0.00068883 -0.0010776 0.00047858)
(0.0015498 -0.0030304 0.0058524)
(-3.2024e-07 7.6545e-07 -1.4498e-05)
(0.0020372 -0.00076645 0.0035757)
(-3.6801e-07 1.8224e-07 -3.968e-08)
(0.0075187 -0.0024345 0.014234)
(0.0016256 -0.0039449 0.025606)
(-0.05513 0.020194 0.11931)
(-0.049976 0.016908 0.10669)
(-0.054439 0.022737 0.12189)
(-0.048347 0.01056 0.096393)
(-3.2274e-08 -4.071e-08 -8.6912e-06)
(-0.0011258 -0.0079649 0.01989)
(0.00085513 -0.0018799 0.035708)
(-0.010299 -0.0086236 0.031139)
(-0.0050209 -0.0040327 0.050778)
(3.6137e-05 -0.0056715 0.049935)
(-0.0001392 0.014481 0.023069)
(-0.0024461 -0.012662 0.088432)
(-0.0053967 -0.010705 0.088244)
(8.7472e-06 -0.012749 0.099464)
(-0.0093516 -0.012398 0.10014)
(-0.01216 -0.012039 0.094195)
(-0.0089886 -0.012917 0.097815)
(-0.0075129 -0.013725 0.0997)
(-0.010837 -0.014129 0.09749)
(-0.019108 -0.012676 0.12219)
(-0.019578 -0.01655 0.12256)
(-0.0099746 -0.006169 0.12369)
(-0.021727 -0.0063725 0.11153)
(-0.0072873 -0.018221 0.1036)
(0.0042632 -0.0080238 0.092897)
(-0.0043641 -0.0086462 0.090342)
(-0.015559 -0.010752 0.10484)
(0.012802 -0.0052255 0.070015)
(-0.00053627 -0.0027728 0.078194)
(-0.00089658 0.0014766 0.051218)
(-0.017554 -0.0082296 0.069243)
(-0.054363 0.010199 0.08652)
(-0.013963 0.013682 0.03522)
(3.0483e-05 5.7953e-06 -0.00010769)
(-0.027845 -0.0033297 0.050852)
(0.00035264 0.00011219 -0.00077793)
(0.00022134 0.00020699 -0.00096563)
(-0.033897 -0.041781 0.093182)
(-0.015125 -0.051738 0.1122)
(8.6379e-06 -2.9311e-06 -9.6636e-05)
(-0.0023747 0.006774 0.039573)
(-0.001765 0.0023713 0.064728)
(0.00095374 0.001709 0.065496)
(-0.0082181 -0.0066801 0.033958)
(0.047207 -0.0034119 0.053685)
(0.022294 0.011251 0.051456)
(0.022175 0.010339 0.029738)
(0.06176 0.0089613 0.052835)
(0.00012817 -0.011246 0.048771)
(-0.00049995 -0.013147 0.055175)
(-0.0044436 -0.010489 0.052576)
(-0.0033544 -0.011562 0.056863)
(-0.0018991 -0.011282 0.04267)
(-0.0005688 -0.012175 0.04478)
(-0.008272 0.0084587 0.005099)
(-0.027472 0.00061909 0.035285)
(-0.022046 -0.0025371 0.0040942)
(-0.0022519 -0.0086407 0.089274)
(-0.0024302 -0.0075482 0.079518)
(-0.00077722 -0.0051508 0.073581)
(0.0030128 -0.0058597 0.075495)
(-0.00061536 -0.00091132 0.053478)
(0.0038947 0.0033188 0.058704)
(-0.0014394 -0.0081918 0.086943)
(9.599e-08 7.2449e-08 -5.3989e-07)
(-5.756e-08 -2.0513e-07 -6.0296e-07)
(0.0053749 0.00041667 0.0054513)
(0.0043296 0.00021865 0.0089844)
(-2.346e-06 1.8014e-06 -2.1132e-05)
(0.003028 -0.0048861 0.013281)
(-0.01201 -0.011714 0.022015)
(-1.3314e-05 -1.4027e-05 -0.00032049)
(9.9667e-06 7.7006e-06 0.00010192)
(-0.0083977 -0.011077 0.021096)
(-0.0098371 -0.014144 0.057923)
(-0.0073704 -0.012311 0.069196)
(-0.0069608 -0.011801 0.062857)
(-0.0057031 -0.012212 0.045194)
(-0.066951 0.0073893 0.15289)
(-0.066168 0.0052608 0.14885)
(-0.0058543 -0.02058 0.079736)
(0.0040815 -0.015999 0.083554)
(-0.0047564 -0.025735 0.081876)
(-0.010101 -0.01837 0.078209)
(-0.010968 -0.018531 0.073327)
(0.0073737 -0.020912 0.080166)
(-0.00088147 -0.025671 0.058113)
(-0.012336 -0.026302 0.07365)
(-0.0033204 -0.022372 0.10321)
(-0.0060072 -0.018317 0.10458)
(-0.0012361 -0.02291 0.092695)
(-0.00057695 -0.019064 0.096391)
(-0.0077101 -0.014611 0.096928)
(-0.0086951 -0.012803 0.089707)
(-0.0078512 -0.013984 0.096301)
(-0.0089224 -0.010751 0.090718)
(-0.011208 -0.02487 0.089937)
(-0.0061736 -0.012484 0.084384)
(-0.0036981 -0.014436 0.083974)
(-0.0036091 -0.013515 0.071115)
(-0.0031814 -0.012553 0.069791)
(-0.0067921 -0.012749 0.082793)
(-0.0079188 -0.011312 0.078832)
(-0.0055576 -0.014984 0.10135)
(-0.0061758 -0.012123 0.10267)
(-0.0070387 -0.01349 0.10572)
(-0.0076522 -0.013117 0.11057)
(-0.0080562 -0.014277 0.10842)
(-0.0080421 -0.011775 0.076474)
(-0.0071008 -0.016107 0.086472)
(-0.0085986 -0.016574 0.08545)
(-0.0088446 -0.014624 0.089605)
(-0.022723 -0.021144 0.10028)
(-0.020838 -0.024114 0.10845)
(-0.0016527 -0.013692 0.070451)
(-0.0042761 -0.013116 0.068723)
(4.2864e-05 3.4446e-05 1.979e-05)
(-0.0060028 -0.019515 0.1061)
(-0.0070398 -0.0076769 0.068789)
(-0.010488 -0.01028 0.080098)
(-0.009245 -0.012312 0.10244)
(-0.0088687 -0.01049 0.090729)
(-0.0075278 -0.011244 0.083646)
(-0.0076406 -0.011258 0.090631)
(-0.0070023 -0.0085718 0.06454)
(-0.0063641 -0.0092372 0.069218)
(-0.0056123 -0.010265 0.077788)
(-0.0067193 -0.011338 0.081068)
(-0.042593 0.0046605 0.096143)
(-0.048272 0.00426 0.10191)
(-0.044972 0.0031212 0.096614)
(-0.044078 0.00034946 0.098357)
(2.0349e-05 -3.4436e-06 2.8787e-05)
(-6.7257e-06 -2.6915e-05 -5.5838e-05)
(-0.0086883 -0.014785 0.1119)
(-0.0069177 -0.015193 0.11168)
(-0.0075553 -0.015368 0.11095)
(-0.0097172 -0.013388 0.087204)
(-0.013962 -0.010002 0.080793)
(-0.011923 -0.0089463 0.078472)
(-0.010446 -0.014709 0.099457)
(-0.010428 -0.017644 0.098831)
(-0.0062213 -0.0059861 0.094044)
(-0.0065378 -0.006515 0.087543)
(-0.066098 0.0099397 0.13982)
(-0.068145 0.013111 0.14151)
(-0.066397 0.0086186 0.13442)
(-0.069938 0.015162 0.13895)
(-0.0029991 -0.01068 0.096337)
(-0.0032749 -0.016719 0.10362)
(0.0095896 -0.0061794 0.084476)
(0.0042864 -0.013603 0.094581)
(-0.0078679 -0.024459 0.092699)
(-0.013562 -0.028364 0.10617)
(-0.0087353 -0.023234 0.12158)
(-0.014133 -0.022385 0.11992)
(-0.01243 -0.020943 0.11186)
(-0.014914 -0.019719 0.11551)
(-0.011481 -0.0046932 0.076926)
(-0.0097129 -0.0044092 0.077628)
(-0.0063266 -0.0046796 0.091354)
(0.0032763 -0.011572 0.09281)
(-0.067521 0.015412 0.13564)
(-0.06473 0.014697 0.13001)
(-0.061341 0.013254 0.13635)
(-0.056722 0.012309 0.13559)
(-0.010976 -0.018363 0.10085)
(-0.013691 -0.01788 0.10246)
(-0.011355 -0.019695 0.096015)
(-0.0083362 -0.0079726 0.049124)
(-0.0083491 -0.0025766 0.045149)
(-0.010281 -0.0040593 0.066697)
(-0.0072656 -0.0035012 0.077989)
(-0.013643 -0.010673 0.07445)
(-0.003289 -0.014458 0.068297)
(-0.0063307 -0.012626 0.070614)
(-0.013679 -0.018721 0.10418)
(-0.012702 -0.018936 0.10296)
(-0.01176 -0.01903 0.099051)
(-0.011787 -0.023793 0.10984)
(-0.065539 0.011426 0.14738)
(-0.019807 -0.013874 0.043678)
(-0.0094827 -0.015259 0.067309)
(-0.035064 -0.020839 0.080119)
(-0.033397 -0.015424 0.081549)
(-0.006496 -0.0028469 0.058232)
(-0.0058191 -0.0065807 0.067425)
(-0.010891 -0.0024094 0.052904)
(-0.010051 -0.0034777 0.066169)
(-0.010581 -0.0035064 0.052212)
(-0.0097982 -0.0096039 0.065672)
(-0.0069542 -0.0076458 0.073163)
(-0.0090987 -0.023225 0.10562)
(-0.010467 -0.018352 0.10698)
(-0.0081623 -0.02307 0.09129)
(-0.0088437 -0.016745 0.095044)
(-0.012638 -0.014466 0.079341)
(-0.012843 -0.014494 0.082942)
(-0.05439 0.0042867 0.090564)
(-0.054284 0.0013134 0.10032)
(-0.061568 0.01258 0.117)
(-0.058348 0.011702 0.11956)
(-0.019581 -0.0017748 0.022392)
(-0.017834 -0.00031867 0.029659)
(-0.0038912 -0.015467 0.1013)
(-0.0018999 -0.015504 0.10462)
(-0.009903 -0.018035 0.11328)
(5.5092e-07 -2.3678e-07 -1.9743e-05)
(-0.0033584 -0.0041531 0.013187)
(0.0053087 -0.0068637 0.023355)
(0.0074458 -0.011003 0.022144)
(-0.025139 0.0063688 0.060824)
(-0.039135 -0.0046782 0.076175)
(-0.041455 -0.009521 0.081256)
(-0.051022 -0.0013046 0.10657)
(-0.047529 -0.0039094 0.090464)
(-0.04851 0.0070443 0.11767)
(-0.047686 0.0032548 0.12149)
(-0.034395 -0.00253 0.080096)
(-0.033591 -0.0075416 0.084832)
(-0.010275 -0.019951 0.10186)
(0.0061451 0.0027845 0.040923)
(-0.00070533 -0.0093656 0.049876)
(0.0005221 -0.011943 0.05042)
(-5.5404e-05 -0.0086811 0.065543)
(-0.0014598 -0.01078 0.082445)
(-0.001814 -0.0092819 0.069782)
(0.00014982 -0.0096629 0.041298)
(0.00071092 -0.011295 0.044869)
(-0.000687 -0.011974 0.045344)
(-0.0099449 -0.012157 0.089298)
(-0.0072224 -0.012134 0.088016)
(-0.0062676 -0.0076374 0.08805)
(-0.0071616 -0.010308 0.090745)
(-0.0054906 -0.01193 0.091879)
(-0.0068319 -0.0098786 0.09141)
(-0.0077897 -0.017273 0.11501)
(-0.0075469 -0.015307 0.11445)
(-0.0084019 -0.017705 0.11657)
(-0.0084286 -0.018044 0.11563)
(-0.016364 -0.0083594 0.05237)
(-0.012678 -0.0067562 0.06184)
(-0.011447 -0.0079738 0.06413)
(-0.011797 -0.0058851 0.065165)
(-0.0072341 -0.0046888 0.080942)
(-0.0069216 -0.0070822 0.085413)
(-0.0094979 -0.0073008 0.072947)
(-0.005031 -0.014074 0.11293)
(-0.0039035 -0.014451 0.11557)
(-0.0037576 -0.014848 0.11377)
(-0.0053468 -0.015356 0.11418)
(-0.0019214 -0.0082152 0.097202)
(0.0013683 -0.0082031 0.096605)
(-0.0013587 -0.011071 0.10345)
(-0.0021193 -0.011157 0.10533)
(-0.0090226 -0.011471 0.072883)
(-0.0077614 -0.0097551 0.071517)
(-0.0066178 -0.0090152 0.078946)
(-0.0079821 -0.0096361 0.078485)
(-0.0066974 -0.010642 0.085694)
(-0.0041394 -0.0098456 0.087759)
(-0.0096654 -0.010619 0.094073)
(0.0043858 0.0010872 0.056454)
(-0.00047324 -0.00059547 0.054835)
(0.00066393 0.00030334 0.055057)
(-0.00057048 -0.0010054 0.06015)
(-0.0064312 -0.010823 0.075675)
(-0.008491 -0.011227 0.086326)
(-0.049753 0.0031823 0.10203)
(-0.048274 -0.0015024 0.096023)
(-0.039045 -0.0010305 0.082936)
(-0.00045185 -0.0068684 0.040034)
(-0.0014459 -0.0088163 0.04544)
(-0.0055639 -0.0062524 0.047104)
(-0.0037383 -0.0072412 0.050053)
(-0.0038472 -0.0082666 0.058666)
(-0.0034986 -0.0091118 0.06254)
(-0.001616 -0.0040232 0.045541)
(-0.00089619 -0.0051132 0.050305)
(0.00087327 -0.010025 0.054863)
(-0.0028709 -0.0077679 0.042867)
(-0.0057424 -0.011466 0.062235)
(-0.0023253 -0.010316 0.057551)
(-0.018959 0.0038773 0.029787)
(-0.028043 0.0012649 0.032826)
(-0.047469 0.019499 0.083201)
(-0.0027968 -0.010913 0.073852)
(-0.0034288 -0.0096955 0.074496)
(-0.0052302 -0.011429 0.084721)
(-0.033723 0.011321 0.071693)
(-0.055108 0.014922 0.10861)
(-0.045829 0.017834 0.094293)
(-0.0069985 -0.0057096 0.065183)
(-0.0056169 -6.9587e-05 0.05644)
(-0.0042342 -0.009426 0.077665)
(-0.002941 -0.00034068 0.033758)
(-0.0051467 0.0048872 0.051267)
(-0.0022025 -0.0044484 0.055722)
(-0.002176 -0.00605 0.06899)
(-0.012489 -0.010005 0.095326)
(-0.013232 -0.0094069 0.093275)
(-0.01405 -0.011491 0.088396)
(-0.01009 -0.0076197 0.082436)
(-0.0071918 -0.016213 0.11322)
(-0.0087323 -0.015963 0.11367)
(-0.0066325 -0.015965 0.11509)
(-0.007317 -0.017276 0.11604)
(-0.011556 -0.017044 0.10443)
(-0.011931 -0.017291 0.098241)
(-0.014238 -0.017743 0.10468)
(-0.010436 -0.016996 0.098334)
(-0.0010555 -0.0090042 0.080791)
(-0.0033228 -0.0077987 0.0639)
(-0.0035401 -0.0064547 0.077627)
(-0.00016697 -0.0063985 0.073854)
(0.00080161 -0.008134 0.080633)
(-0.0022237 -0.0079492 0.090825)
(-0.00070687 -0.009487 0.097344)
(-0.058177 0.020352 0.12139)
(-0.06139 0.0176 0.11798)
(-0.06416 0.014399 0.12972)
(-0.057089 0.011048 0.1208)
(-0.0092566 -0.011233 0.090696)
(-0.0068414 -0.011723 0.090507)
(-0.0069283 -0.009523 0.081668)
(-0.004626 -0.012503 0.12133)
(0.0046302 -0.016116 0.10529)
(-0.004182 -0.015659 0.1104)
(0.003576 -0.017311 0.11433)
(0.0014451 -0.014302 0.1044)
(-0.066346 0.011312 0.12572)
(-0.065751 0.01372 0.12768)
(-0.07139 0.011571 0.12859)
(-0.066955 0.012111 0.12469)
(0.0028218 -0.014417 0.048256)
(0.00073014 -0.011215 0.065581)
(-0.0026122 -0.015215 0.053749)
(0.0052512 -0.015183 0.067379)
(-0.011232 -0.0093074 0.055672)
(-0.0054273 -0.010028 0.065664)
(-0.0034538 -0.010139 0.082125)
(-0.010626 -0.0083013 0.085453)
(-0.0098758 -0.010201 0.081625)
(-0.0080696 -0.0084955 0.070178)
(-0.0039419 -0.0071428 0.062185)
(-0.0053108 -0.011601 0.05123)
(-0.0043798 -0.0037977 0.082841)
(-0.0039101 -0.0069105 0.071007)
(-0.0027988 -0.0078666 0.081905)
(-0.0027948 -0.0052365 0.072311)
(-0.001415 -0.0038107 0.047395)
(0.0026579 -0.0044885 0.039186)
(-0.00099741 -0.0016195 0.066265)
(0.0025562 -0.0036232 0.062048)
(0.00084271 -0.0030766 0.073023)
(-0.0014763 -0.008831 0.077168)
(-0.0022081 -0.0074859 0.074874)
(-0.012676 -0.014419 0.10816)
(-0.011684 -0.017416 0.10706)
(-0.012967 -0.016649 0.10952)
(-0.012874 -0.016521 0.10718)
(-0.010115 -0.016785 0.11374)
(-0.010493 -0.015523 0.11371)
(-0.0074429 -0.015436 0.11403)
(-0.0069108 -0.0054012 0.059861)
(-0.0069761 -0.0068376 0.056913)
(-0.0077555 -0.013784 0.11005)
(-0.0075147 -0.014381 0.10956)
(0.0010828 -0.0048716 0.043669)
(0.0015525 -0.0044612 0.027367)
(-0.0013607 -0.0024569 0.044669)
(0.00027064 -0.0011796 0.033201)
(-0.063663 0.012982 0.12087)
(-0.060359 0.017616 0.12446)
(-0.05847 0.017555 0.12067)
(-0.0036218 -0.010298 0.079285)
(-0.0073614 -0.012437 0.049199)
(-0.009128 -0.0046643 0.031648)
(-0.0054126 -0.0073577 0.051236)
(-0.0070816 -0.0097134 0.054003)
(-0.0072208 -0.012466 0.098456)
(-0.0040132 -0.010919 0.09969)
(-0.0031547 -0.012906 0.10774)
(-0.0042071 -0.012183 0.10866)
(-0.0063154 -0.013219 0.10809)
(-0.0043688 -0.012855 0.10709)
(-0.0056555 -0.0126 0.10809)
(-0.0071015 -0.011566 0.10112)
(-0.006318 -0.011028 0.092952)
(-0.0056164 -0.0093784 0.094181)
(-0.0015673 -0.011823 0.090373)
(-0.010535 -0.017738 0.10115)
(-0.0086341 -0.014518 0.10489)
(-0.010127 -0.015253 0.10561)
(-0.017211 -0.013723 0.057617)
(-0.011011 0.001394 0.074105)
(-0.013865 -0.0084353 0.07031)
(-0.072479 0.016236 0.14575)
(-0.044617 0.029148 0.13845)
(-0.071947 0.032058 0.13776)
(1.1834e-05 4.0224e-06 -0.00013951)
(0.0038776 -0.0031945 0.063272)
(0.00012517 -1.4764e-05 -0.0002617)
(-0.043088 0.031812 0.12821)
(-0.02814 -0.010306 0.064)
(-0.028269 0.022395 0.11913)
(-0.0082857 -0.011321 0.056728)
(-0.044228 0.0010791 0.094158)
(-0.039649 0.0094937 0.09639)
(3.2076e-05 -1.4475e-06 -0.00012011)
(-0.019685 -0.018536 0.10484)
(-0.059632 0.011595 0.13714)
(-0.039066 0.033538 0.048281)
(4.2589e-05 -2.4609e-05 9.0677e-05)
(-0.0010587 -0.030142 0.062065)
(0.0038537 -0.01043 0.12487)
(-0.015616 -0.019371 0.078121)
(2.4499e-06 9.5051e-06 -0.00027269)
(-0.018912 0.0051644 0.029505)
(-0.020713 0.0030302 0.042482)
(-0.056798 0.028843 0.1524)
(-0.03098 0.0088429 0.13016)
(-0.017724 -0.016448 0.08292)
(-0.075731 0.0099729 0.14057)
(-0.069815 -0.01239 0.068051)