/*--------------------------------*- C++ -*----------------------------------*\\
| =========                 |                                                 |
| \\      /  F ield         | OpenFOAM: The Open Source CFD Toolbox           |
|  \\    /   O peration     | Version:  v1706                                 |
|   \\  /    A nd           | Web:      www.OpenFOAM.com                      |
|    \\/     M anipulation  |                                                 |
\\*---------------------------------------------------------------------------*/
FoamFile
{
    version     2.0;
    format      ascii;
    class       surfaceScalarField;
    location    "2";
    object      mdot_f;
}
// * * * * * * * * * * * * * * * * * * * * * * * * * * * * * * * * * * * * * //

dimensions      [1 0 -1 0 0 0 0]


internalField   nonuniform List<scalar>
13482
(
-3.2774e-07
-1.9353e-07
3.4196e-07
1.793e-07
-4.6645e-10
-3.2722e-07
4.2885e-07
-4.2931e-07
1.3343e-07
1.0199e-07
5.3533e-09
-3.9356e-09
-1.4176e-09
-2.0224e-06
1.1775e-06
8.502e-07
1.977e-06
-1.9809e-06
1.2688e-07
7.9304e-07
1.0561e-06
-1.6282e-06
-2.6944e-06
2.3407e-06
-5.0699e-06
3.5617e-06
7.7797e-07
-2.0126e-06
-2.8282e-06
1.3952e-06
1.4043e-06
2.8686e-08
-2.8362e-06
8.9708e-09
-1.501e-06
-3.6616e-06
2.3264e-06
-2.2743e-06
-9.2961e-07
1.703e-06
-3.5031e-06
-1.5825e-07
-6.5017e-06
7.2539e-07
-1.7982e-07
6.469e-07
-2.6743e-08
-1.5752e-06
6.6927e-07
9.3265e-07
-2.7034e-08
8.2781e-10
-9.8341e-07
-7.6949e-07
-2.297e-06
-5.1884e-06
-2.3239e-06
-1.9226e-07
5.4799e-08
1.3746e-07
-2.2206e-05
2.1715e-05
2.9873e-07
7.5568e-06
-4.2961e-06
-2.5465e-05
7.7697e-08
3.354e-06
4.125e-06
1.3221e-07
-5.2389e-07
5.2367e-07
2.2165e-10
2.8298e-06
-7.0426e-07
-2.6493e-06
1.8636e-06
1.4904e-06
3.5282e-06
9.5813e-07
-2.6226e-06
9.5873e-07
-1.7806e-07
7.099e-07
1.8473e-06
2.6405e-06
-1.5335e-06
1.4394e-06
-3.413e-06
3.507e-06
1.0213e-06
-5.028e-06
2.4733e-06
5.3334e-08
-1.9298e-06
3.316e-06
-1.0351e-06
2.5502e-06
-1.4618e-06
-1.9738e-06
1.9601e-06
3.4017e-06
6.6788e-06
-8.3612e-06
-1.7194e-06
5.3486e-06
-2.4305e-07
-3.6744e-06
5.7316e-06
3.2914e-06
7.0081e-07
2.305e-06
4.436e-06
3.3025e-06
-8.8907e-06
1.1522e-06
2.2078e-06
2.244e-06
-1.4994e-08
1.0795e-06
7.0196e-06
-1.4727e-05
6.6276e-06
9.6234e-10
3.2875e-06
4.0777e-10
7.0168e-10
1.0039e-09
-1.8057e-06
8.8255e-06
2.0184e-09
-1.2184e-05
7.6081e-07
2.1677e-07
-1.4591e-05
-8.1096e-08
1.4456e-05
1.4356e-07
7.26e-08
-6.249e-07
7.5869e-07
9.7767e-09
-3.3449e-06
-1.1873e-05
6.1159e-09
1.0406e-05
-1.1871e-05
1.4584e-06
7.4067e-09
1.4684e-09
3.922e-09
3.4847e-09
2.052e-06
8.3605e-06
3.0509e-06
1.2264e-06
-4.596e-06
3.1875e-07
1.9696e-06
-2.6997e-06
3.7811e-06
1.1163e-06
1.1052e-06
-9.9514e-07
-1.0647e-08
3.0966e-06
4.4703e-06
5.8442e-06
-9.7545e-06
-5.5999e-07
1.2077e-06
-2.0852e-07
3.4712e-06
2.456e-06
-7.2373e-06
4.6706e-06
-1.3291e-07
-6.4659e-06
1.6847e-06
-4.9266e-07
-7.8889e-06
1.9157e-06
-1.2699e-05
2.4523e-06
1.5329e-06
-1.5332e-06
3.2913e-10
-7.7601e-07
1.9253e-06
3.8405e-07
6.0014e-06
-6.6955e-06
-8.3874e-07
3.9128e-06
1.3138e-06
-2.4631e-07
2.4019e-06
-2.2995e-07
-4.0298e-07
4.1661e-07
-2.5962e-07
-4.0255e-07
-1.9076e-06
7.7143e-06
-1.483e-06
-4.3237e-06
-6.6088e-06
4.0454e-07
-2.4543e-06
6.2911e-06
3.8771e-06
-8.1484e-06
-9.1566e-07
-3.2209e-06
-1.3689e-06
-5.9844e-07
-2.1177e-06
-9.2508e-06
2.7681e-06
2.1543e-06
-3.3539e-06
-5.6867e-08
3.4108e-06
-1.8678e-05
1.3206e-05
-1.2463e-07
6.7764e-08
-2.1268e-06
7.246e-08
1.9297e-06
4.8814e-07
7.7482e-06
-1.3807e-06
2.6031e-07
-9.0294e-07
6.6155e-06
2.0358e-06
1.2301e-05
-2.5936e-07
-1.3423e-05
1.952e-06
9.4473e-06
-3.0787e-06
-4.6427e-07
9.0845e-07
2.6345e-06
-1.3594e-07
-2.682e-06
1.3407e-06
4.811e-06
5.2858e-06
2.6928e-06
-5.2911e-06
-2.6875e-06
7.1808e-06
6.8589e-07
-2.5807e-06
3.077e-06
-7.0953e-07
3.2544e-07
-2.8057e-06
4.3269e-06
1.5559e-06
4.9509e-06
-5.7552e-07
-2.5748e-07
9.9238e-08
-5.5094e-06
9.86e-06
-4.6081e-06
-1.8772e-06
-2.9069e-06
6.6814e-06
3.964e-06
-7.8698e-07
6.5792e-06
1.0152e-07
-4.5971e-06
2.8159e-06
-7.15e-07
-2.163e-06
1.587e-06
2.3144e-06
2.0143e-06
-4.7579e-06
-5.139e-06
-6.7658e-06
-2.8544e-07
-2.6148e-07
7.3127e-06
-1.791e-06
-7.9244e-06
2.9503e-06
4.0386e-06
-4.0843e-06
-1.7451e-06
3.0052e-06
7.4875e-07
-1.5784e-06
2.4441e-06
6.2488e-09
-8.7196e-07
2.9686e-06
-3.9471e-06
-6.0171e-07
9.8609e-07
2.6621e-06
-1.2056e-06
-6.9611e-06
1.091e-05
-3.7433e-06
2.4349e-06
-1.1367e-07
1.4221e-06
1.0275e-06
-4.9793e-06
2.3543e-06
1.8366e-06
-3.1634e-06
-9.6715e-07
2.4795e-07
3.0736e-06
3.3976e-07
1.1281e-06
-5.5731e-07
-4.2687e-06
1.4565e-06
3.3695e-06
-5.3505e-06
7.4311e-07
4.0505e-06
-6.655e-06
2.9994e-06
-6.1294e-07
1.1944e-07
-1.3035e-05
6.2611e-06
-1.18e-05
6.5695e-06
-2.1197e-05
9.5393e-08
9.3017e-06
1.6531e-05
-2.0771e-05
-1.6956e-05
3.2365e-06
-1.7237e-09
1.3394e-07
2.9291e-06
-3.5403e-06
6.0944e-07
3.9027e-07
1.1654e-06
1.3732e-06
2.735e-06
-1.4625e-07
-2.1986e-06
-2.3292e-06
2.3093e-06
2.7549e-06
-1.0183e-06
-1.45e-07
-1.2297e-08
4.6333e-07
-6.5027e-07
-7.1571e-06
-2.1347e-06
2.3288e-06
-6.2449e-06
-1.0956e-06
1.8132e-07
-9.168e-06
7.2897e-07
6.3036e-06
-2.1688e-06
-9.0286e-06
2.0279e-06
-7.5657e-06
-8.502e-07
-2.3263e-07
2.3166e-07
9.6691e-10
-1.3937e-06
1.9631e-06
-8.0189e-07
-6.9965e-07
-4.4454e-07
1.376e-06
2.2116e-06
-4.3037e-06
9.5308e-07
-1.4782e-06
2.4887e-06
3.8367e-10
4.4463e-08
9.0844e-07
1.4224e-09
1.8309e-06
1.138e-06
8.7221e-07
-3.8411e-06
1.1584e-06
6.6145e-07
1.7837e-07
-8.3982e-07
1.4928e-06
-2.1604e-06
1.4628e-06
-8.1151e-07
1.5092e-06
1.5948e-06
1.8371e-06
8.9511e-07
1.6946e-06
-3.903e-08
-9.9671e-08
1.4062e-06
1.8833e-06
7.3667e-07
2.5634e-06
-5.8137e-07
-5.1593e-08
-4.8779e-07
7.8635e-07
-7.5892e-07
1.6186e-06
-8.5968e-07
2.1893e-07
2.6784e-09
-9.8077e-07
1.6835e-07
1.6683e-06
3.6353e-07
-1.4384e-06
1.2433e-06
-1.6571e-06
1.4516e-06
5.6867e-07
1.1088e-08
3.3851e-08
-2.2762e-08
1.0323e-06
4.0671e-07
1.2646e-08
1.0642e-06
9.5617e-10
2.7394e-08
-2.5285e-08
4.6314e-09
1.5406e-06
7.3225e-07
-2.226e-06
-4.6884e-08
-1.4744e-06
-2.6185e-06
5.6332e-06
1.8452e-06
-9.2025e-07
-1.9316e-07
-2.4638e-06
2.8343e-06
-2.4022e-06
-1.7697e-07
3.5294e-07
8.35e-07
4.4209e-08
-3.2816e-06
1.7361e-06
-2.4722e-06
1.5711e-06
1.2313e-06
3.275e-07
-9.5569e-07
-1.6189e-06
-4.8554e-06
4.8592e-06
-3.7213e-09
2.9429e-07
-1.0159e-07
-5.0474e-06
3.714e-06
-5.2125e-07
-2.8975e-06
6.3631e-06
2.2116e-06
9.0604e-07
-1.7257e-06
1.3366e-07
6.8595e-07
-5.2419e-07
4.0164e-07
1.0287e-06
-1.6696e-06
7.0484e-07
4.4065e-07
-2.6685e-06
-7.2644e-07
3.1732e-09
1.9379e-06
-1.4751e-06
-4.6596e-07
2.6145e-09
7.3453e-10
-1.0435e-09
5.2806e-07
-5.7661e-07
4.959e-08
1.6558e-09
-1.8452e-09
4.2213e-07
-5.2386e-07
1.0357e-07
-1.5945e-10
-3.0784e-10
-1.8941e-08
3.7206e-08
-1.7957e-08
-4.4247e-10
1.6046e-07
2.4282e-07
9.9522e-08
-9.5178e-08
-9.7268e-08
1.459e-06
2.7015e-06
-2.4152e-06
-4.3667e-06
4.0804e-06
1.0281e-09
5.516e-07
-8.0419e-06
-1.8676e-06
-5.3658e-06
4.4419e-06
2.7915e-06
-4.6011e-06
1.8175e-06
9.1616e-07
-3.1244e-06
-3.0407e-06
7.9941e-07
-2.6069e-06
2.0486e-06
-2.566e-06
9.9922e-06
-1.0315e-06
-1.1567e-05
-9.3687e-07
7.1222e-09
-2.5595e-06
1.1943e-06
2.8972e-06
-2.5283e-06
-1.5633e-06
1.1906e-06
4.4139e-09
-9.711e-07
2.1611e-06
5.8411e-10
1.4049e-06
5.2255e-07
-8.0376e-07
-7.5145e-07
2.1189e-06
-5.6373e-07
-1.3811e-06
2.2106e-06
-1.6332e-06
-9.2374e-07
-1.3054e-06
1.4777e-06
-3.0077e-06
7.0288e-07
3.1011e-06
-8.1637e-07
-1.8647e-06
-4.2003e-07
-6.8927e-07
2.4851e-06
3.2872e-06
-1.2218e-06
-2.8818e-06
6.2418e-07
-2.5382e-06
-2.3342e-06
1.53e-07
-1.5303e-07
3.1829e-11
-5.4626e-07
2.6718e-07
4.3208e-07
-4.9602e-07
2.8582e-07
-3.3606e-07
-3.1105e-07
-3.3799e-07
6.1004e-07
-7.3222e-08
6.1657e-08
-5.9848e-07
-1.3789e-07
-1.4731e-07
8.9523e-07
7.3169e-08
-9.5002e-08
-1.1606e-07
-5.4392e-11
1.4297e-06
-1.0875e-06
-9.1504e-07
5.728e-07
-1.6587e-06
8.71e-07
2.2174e-06
-1.2926e-06
-3.8496e-07
1.8871e-08
-1.5593e-06
-8.2077e-07
-2.2546e-08
-1.7629e-06
1.3886e-06
3.9684e-07
-1.7915e-06
3.1981e-07
1.4492e-06
-8.1456e-07
4.209e-07
-1.3978e-06
-2.2641e-06
-3.1326e-07
-1.6763e-05
2.9164e-06
-7.0408e-07
1.4551e-05
-8.1304e-06
-1.0682e-05
2.0493e-06
-1.4652e-05
2.5656e-05
-8.0882e-06
4.5233e-06
-2.7307e-05
-5.54e-06
1.3236e-05
-8.0544e-06
3.5841e-07
4.102e-06
-2.0325e-05
3.1277e-06
9.4035e-06
1.4037e-07
-4.8034e-06
-2.0529e-06
6.7159e-06
3.9171e-08
9.9488e-08
-4.828e-06
-6.2272e-07
5.4898e-06
-6.0206e-06
-3.6141e-06
1.6179e-07
4.9022e-07
-1.1252e-07
-5.3949e-07
1.162e-06
4.0916e-08
-1.0411e-06
1.1815e-06
-2.3037e-07
2.1088e-07
-4.3486e-07
9.2043e-07
6.9589e-07
5.3668e-08
1.6924e-09
-5.5551e-08
-3.2833e-07
4.248e-07
-2.0848e-08
-3.5034e-07
2.5867e-07
-1.9066e-07
1.1427e-07
2.4618e-06
1.7861e-06
-3.075e-06
-1.1729e-06
2.4258e-06
-1.8425e-06
1.8785e-06
-1.1822e-06
2.6442e-07
9.957e-07
-3.9179e-07
7.4961e-07
-1.2865e-06
4.8755e-07
4.9347e-08
-2.5888e-06
2.5534e-06
7.8545e-07
-4.8799e-07
6.6826e-07
-2.5108e-06
7.3787e-07
-2.7193e-06
-2.3353e-06
2.1571e-06
2.8975e-06
-2.7577e-06
3.9737e-08
-1.6282e-07
-2.1068e-06
-1.8809e-07
4.5523e-08
2.1179e-07
-5.1925e-08
-2.0538e-07
4.5611e-08
-9.4797e-11
3.9814e-07
-3.5511e-07
2.5829e-09
-3.3236e-08
6.4315e-07
-5.6532e-08
4.3396e-07
-5.5158e-07
1.7415e-07
1.848e-07
3.0681e-08
-2.7201e-07
-3.373e-07
-3.649e-07
1.1362e-06
-4.3838e-07
2.8588e-07
-8.2772e-06
4.6048e-05
-2.8451e-05
4.1772e-05
-2.6204e-05
-2.3844e-05
7.8265e-06
9.5403e-06
2.4405e-05
2.6938e-05
2.6936e-05
-3.3408e-06
2.2252e-06
6.0638e-07
5.0926e-07
2.4692e-06
-3.0794e-06
-2.7304e-06
3.2735e-06
-6.355e-07
-1.6883e-07
2.3255e-06
3.1733e-06
2.421e-05
1.6571e-05
-1.5125e-05
1.6592e-05
-7.586e-06
1.5205e-05
2.459e-05
-6.0597e-06
-1.9599e-06
1.514e-05
2.6042e-05
-7.5775e-06
2.6327e-05
-3.6102e-06
-2.4375e-05
2.1059e-05
-4.2616e-06
-9.6398e-06
-2.0796e-05
1.1497e-06
-1.1535e-06
3.7894e-09
-3.9256e-06
3.1723e-06
1.9025e-06
7.7151e-07
-2.6008e-06
-2.0967e-06
-3.8015e-07
-2.9185e-09
-4.286e-07
3.6311e-07
2.3867e-07
-1.7318e-07
-4.2467e-07
-3.7982e-09
1.9423e-07
-2.0646e-07
-4.1245e-07
6.8845e-07
-1.3073e-07
-1.0228e-06
1.6321e-06
1.1699e-06
1.3326e-06
-3.5253e-06
1.7999e-07
1.7768e-06
-7.8684e-07
1.3111e-07
1.681e-06
1.2448e-06
2.0237e-06
1.9651e-06
-5.0737e-07
-2.1245e-07
1.8864e-06
1.1231e-06
-9.8543e-07
2.8327e-06
1.02e-06
3.1185e-06
-2.4026e-06
4.0842e-07
-4.199e-06
3.0906e-06
3.9414e-06
-3.1311e-06
2.0519e-06
1.7383e-06
-2.0702e-06
-2.0699e-06
-3.1931e-06
3.9486e-06
3.167e-07
6.9959e-07
4.7627e-08
-1.9065e-06
-2.0919e-06
4.3146e-06
-2.2191e-07
-1.2774e-06
1.4945e-06
-2.3285e-06
-9.0412e-07
1.7381e-06
-1.8468e-07
-1.9798e-06
3.6622e-06
7.4224e-06
-7.5365e-06
-6.9443e-08
2.246e-06
3.1098e-06
3.0151e-06
-3.5212e-06
-4.6735e-06
5.1796e-06
2.1321e-06
5.1926e-06
-2.5211e-05
1.6499e-05
1.0778e-05
-3.4529e-06
2.2878e-06
-1.4496e-05
9.0499e-07
-1.2137e-07
-2.3185e-06
-2.7261e-06
3.7897e-06
1.2549e-06
-2.3647e-06
4.5513e-08
9.8252e-07
-2.6476e-06
2.9852e-07
-2.0427e-06
-5.7097e-11
-3.5574e-09
3.6145e-09
-2.1485e-09
2.0915e-09
3.3693e-07
-1.5948e-06
1.2557e-06
1.2617e-06
-9.2741e-07
1.5365e-05
6.371e-06
-4.0961e-06
-1.764e-05
2.0606e-06
1.0816e-05
2.4884e-06
-9.9055e-06
4.3999e-06
5.8451e-07
-4.1186e-06
3.6865e-07
4.5104e-06
8.7552e-07
-5.7545e-06
-2.5148e-08
-1.3535e-07
5.3216e-07
5.2021e-07
-1.4064e-06
8.616e-07
1.611e-05
-1.1076e-05
1.5322e-05
-7.1742e-06
-7.6515e-06
-4.966e-07
-6.5562e-06
2.1684e-05
1.9431e-07
1.0361e-05
-1.2332e-05
-5.2034e-06
-9.5373e-06
1.3341e-05
-6.9579e-06
1.4182e-05
-6.373e-06
-8.5079e-07
-1.4918e-05
-4.3709e-06
9.458e-06
-4.8133e-06
-2.9787e-06
-6.23e-07
7.4329e-07
2.8584e-06
-4.8882e-07
-1.6189e-06
-3.327e-06
8.9289e-09
2.6951e-06
-2.3315e-06
-1.4843e-06
-8.9776e-06
5.3126e-06
-3.5494e-06
7.2144e-06
2.0637e-07
-5.96e-06
-3.2235e-06
-1.4076e-05
4.1884e-06
1.833e-06
-5.4893e-06
1.4992e-05
-9.53e-08
-8.8012e-07
1.8899e-07
-9.4204e-08
-1.0961e-09
2.7955e-07
-3.0366e-07
-7.0097e-08
-4.9705e-07
-1.0352e-07
-5.6379e-06
-1.972e-06
4.1548e-06
3.4551e-06
-3.019e-06
-6.6706e-08
-2.5552e-06
6.6898e-06
-2.5747e-06
-7.1353e-06
5.1198e-06
-4.0562e-07
2.1863e-07
8.5066e-07
-3.8082e-07
2.7756e-06
-1.5372e-06
-1.0198e-06
8.5194e-07
-1.2785e-09
1.5694e-06
2.0581e-06
2.1014e-06
-1.6073e-06
-5.0842e-07
1.4331e-08
-1.3734e-06
1.3801e-06
2.0947e-06
1.7272e-06
-2.2163e-06
-1.1182e-06
-1.0499e-07
4.5884e-07
1.565e-06
6.0531e-07
-9.8248e-07
-1.1879e-06
3.3682e-07
1.1233e-06
-4.6467e-07
-1.1462e-06
-2.4435e-06
9.1708e-07
4.0816e-07
-1.7963e-06
-1.1118e-06
4.9274e-07
1.8988e-06
-2.2637e-06
-1.2778e-07
4.9919e-07
-6.4146e-09
-1.7357e-06
8.2649e-07
6.2786e-07
-4.6476e-07
-1.7134e-06
3.1529e-08
-4.6699e-11
1.6819e-06
-3.4555e-07
-8.2429e-07
-5.4354e-07
-2.6941e-08
-3.1806e-07
-5.6571e-10
-8.8815e-07
3.0134e-06
-2.8242e-07
-1.8428e-06
1.0644e-06
-3.1234e-07
-1.6402e-06
1.4435e-06
-7.4401e-07
-1.7392e-06
1.5584e-06
1.6243e-06
3.592e-07
-1.9298e-06
1.9437e-06
-1.3882e-08
1.5412e-06
-2.358e-06
-1.1135e-06
-1.525e-06
-1.4414e-07
3.2096e-06
3.9699e-07
2.0434e-08
3.3746e-06
-2.5516e-06
7.6787e-06
-8.5017e-06
-2.1347e-06
-7.3998e-06
2.425e-06
9.8479e-07
-5.9614e-06
5.7665e-06
-5.4762e-06
4.5009e-06
-3.6228e-06
4.7336e-06
-5.6118e-06
-3.3022e-06
9.494e-06
-1.6909e-06
2.0071e-06
-4.5378e-06
-1.0921e-06
-2.4571e-06
1.1621e-06
1.8689e-06
-1.1901e-07
-1.3215e-06
-4.2839e-07
-5.6564e-07
1.9834e-06
4.5119e-07
3.3701e-06
-2.6179e-06
-8.7125e-07
-1.3643e-07
2.9409e-06
2.8302e-06
4.2556e-07
-1.6306e-06
-1.6252e-06
3.6234e-07
-9.8665e-07
-1.2056e-06
-2.7794e-06
1.7958e-06
1.1245e-07
-2.4844e-06
-1.2817e-06
-1.7062e-06
1.5601e-06
-4.2852e-07
1.0703e-07
-1.3847e-06
-2.8466e-07
-1.7744e-06
6.0897e-07
-1.1583e-06
-1.3449e-07
6.8378e-07
1.7016e-06
4.6751e-07
-9.1683e-07
-1.3439e-07
4.6692e-07
1.8584e-07
1.8324e-06
4.4664e-07
1.498e-06
1.0897e-07
-6.476e-07
9.8528e-07
-3.9574e-07
-5.1929e-07
1.024e-06
-1.3645e-06
1.1547e-06
-5.1919e-07
-1.1009e-06
9.7248e-07
5.8104e-07
-1.4356e-06
3.3539e-07
9.3877e-07
-8.77e-07
6.8038e-07
-2.2758e-06
-5.9973e-07
2.1951e-06
-1.6474e-06
2.2837e-06
4.4035e-08
1.3567e-07
-4.2801e-07
-1.3423e-06
-1.6943e-07
1.328e-06
-1.3372e-06
9.2287e-09
-3.9511e-06
3.3021e-06
1.9766e-06
9.0465e-07
-1.0421e-06
-3.8147e-06
-3.8305e-08
-3.4812e-06
2.5427e-08
2.5009e-06
9.5494e-07
6.7164e-07
-2.1107e-06
-2.0422e-06
2.3023e-06
-4.9935e-07
-1.1313e-06
2.8195e-07
2.0458e-06
-2.0801e-07
1.7187e-07
-2.082e-07
1.7612e-10
-3.5926e-07
-3.4831e-07
-2.4497e-06
-1.5569e-06
2.1833e-07
3.7882e-06
-1.4503e-06
4.5445e-07
-1.4538e-06
-1.8393e-06
1.1055e-07
1.7186e-07
-9.8415e-07
-2.3054e-06
9.3409e-07
-2.2263e-06
1.0946e-06
1.9768e-07
-2.3292e-06
6.9074e-07
2.5722e-06
4.2373e-07
-1.2865e-06
-1.3637e-06
-6.6956e-07
-1.2361e-06
-3.1711e-06
-9.8318e-07
2.4324e-06
-4.8399e-06
-2.3654e-06
-3.5692e-06
-2.4298e-06
9.0749e-08
-1.2816e-06
1.5415e-06
-2.6897e-06
2.5389e-06
1.1998e-06
-5.0202e-06
4.1672e-06
-3.9937e-06
3.4453e-06
5.3044e-07
-4.687e-06
7.1123e-07
3.5133e-06
-6.6644e-08
-2.2712e-06
-2.6679e-06
3.5146e-06
-2.2719e-06
-3.4275e-08
1.1658e-06
-3.3011e-06
-1.4951e-06
1.5222e-06
-2.7145e-08
-2.908e-06
5.1132e-07
-2.9244e-06
2.4693e-06
-5.6214e-07
1.9031e-06
-1.2565e-06
-8.4481e-08
1.3149e-06
-4.0693e-07
-1.4701e-06
-1.4764e-07
1.1986e-06
2.6388e-07
1.4708e-06
5.7518e-07
-1.6007e-06
1.3454e-06
-2.5284e-06
4.2359e-07
2.6801e-06
4.0568e-06
-2.9051e-06
-2.7525e-06
-4.6878e-07
1.9973e-06
6.2015e-06
-1.4578e-06
-4.4957e-06
2.2793e-06
3.4535e-06
-4.0229e-06
7.8001e-07
-4.5825e-06
-6.9306e-07
4.0729e-06
-7.9611e-08
-3.2132e-06
2.5463e-06
3.8061e-06
2.3502e-06
-3.0408e-10
1.4901e-10
1.5507e-10
3.6929e-08
-3.7167e-08
-6.5893e-11
3.1082e-10
7.9372e-08
-4.2755e-08
4.5305e-10
3.0319e-08
4.5801e-08
-4.7794e-08
-2.8326e-08
3.0316e-08
4.3133e-12
-5.14e-07
5.1136e-07
3.2954e-08
6.1031e-08
-5.2921e-07
6.8305e-07
8.1098e-07
-3.4219e-06
1.9279e-06
6.6305e-07
-2.6999e-06
2.7208e-06
-9.39e-07
-4.9916e-07
2.2502e-06
-4.6314e-07
-7.2261e-07
7.2257e-07
4.2609e-11
5.8303e-07
-5.6297e-07
-7.4261e-07
-2.583e-06
5.4491e-08
1.9308e-06
5.9776e-07
-1.1032e-06
-8.9638e-07
-2.4075e-06
5.435e-07
1.9187e-06
-1.594e-06
-1.9165e-06
1.3068e-06
1.347e-06
2.4947e-06
-3.6198e-06
1.5653e-06
-4.5117e-07
1.3805e-06
2.7107e-06
1.5497e-06
-2.8435e-06
-2.5523e-06
2.4031e-06
2.9927e-06
-3.2691e-06
-2.0983e-07
4.5977e-06
-1.6757e-06
-1.4957e-06
-1.4262e-06
2.1995e-06
-1.5401e-07
-3.0259e-06
-1.9189e-06
-9.3677e-06
-1.9508e-05
1.7166e-05
1.1709e-05
-3.3175e-05
2.0453e-05
3.3561e-06
1.5452e-05
-3.2315e-05
-1.6311e-05
-8.7158e-06
4.6629e-06
-5.5659e-06
-1.0555e-05
1.5961e-05
1.6034e-07
-8.8363e-06
9.94e-06
-6.669e-06
3.1451e-06
4.2679e-06
-1.6249e-05
6.2667e-06
-1.3675e-05
-1.4997e-06
-9.0136e-06
1.8689e-06
8.6444e-06
-1.5157e-05
5.5272e-06
8.1315e-06
-1.9175e-05
4.6981e-06
5.4643e-06
3.7969e-06
-3.8125e-05
-2.8124e-06
1.8294e-06
1.6845e-06
3.5948e-09
-3.3891e-06
2.6811e-06
-2.8881e-05
2.9589e-05
-2.8688e-06
-5.1062e-07
-1.2208e-06
-1.648e-06
1.7015e-05
-4.4989e-06
-1.3737e-05
2.5836e-05
-6.0871e-06
-4.1695e-06
4.1574e-06
1.2063e-08
6.572e-06
-3.7406e-06
-7.0002e-06
1.5953e-05
-4.2907e-06
-5.0892e-06
1.7696e-06
8.0532e-06
6.1308e-06
1.1837e-08
5.9164e-06
-2.0374e-05
-8.3193e-06
-2.8437e-05
6.6812e-06
4.801e-06
-1.2271e-05
-1.3862e-05
-2.3016e-06
-3.0776e-05
9.341e-07
-6.8674e-07
-4.6422e-07
2.1686e-07
3.3469e-07
4.6493e-07
1.1235e-06
3.6545e-08
-7.0121e-07
4.1712e-07
-1.7196e-07
-3.3098e-07
-4.7079e-07
2.8558e-06
-2.1806e-06
3.9498e-08
-7.1471e-07
4.9302e-06
7.7098e-08
-5.1529e-07
-1.7922e-06
-2.7247e-06
-1.5155e-06
6.0325e-06
-2.6858e-06
2.9672e-06
-2.0735e-06
-1.6672e-06
-4.6405e-07
-5.5459e-07
-8.5825e-07
1.7375e-06
-2.3767e-06
2.7894e-06
-8.7668e-07
9.924e-07
-4.2272e-06
-3.1521e-06
2.1649e-06
6.3035e-11
-2.3385e-10
1.7081e-10
-4.7956e-11
1.1101e-10
1.6704e-06
-2.3746e-06
1.9291e-07
-6.0864e-07
-1.3162e-06
-9.7899e-07
-7.8807e-08
-1.4622e-06
-4.6019e-07
3.8746e-07
-2.117e-08
-3.663e-07
-5.9061e-07
-1.8316e-06
1.7343e-06
-8.2133e-07
-4.4679e-07
-3.1996e-08
1.3001e-06
-1.4577e-06
-1.7131e-06
2.3495e-06
1.7158e-06
2.5476e-06
-5.721e-06
1.9741e-06
-3.4575e-06
2.2709e-06
2.3101e-07
4.0782e-06
-1.9032e-06
-1.1543e-05
1.1206e-05
-4.0588e-07
7.43e-07
-6.9807e-06
3.8097e-06
5.6517e-06
-5.4601e-06
-7.2896e-07
6.8427e-06
-6.5362e-07
-4.0915e-06
-1.8485e-06
4.8046e-07
4.5365e-07
6.1311e-06
-1.6226e-06
4.82e-07
1.8533e-06
3.3396e-07
-2.6945e-06
-2.6806e-06
9.9406e-07
4.3811e-06
-3.3894e-06
-2.2737e-06
2.9687e-06
-2.4634e-06
2.3666e-07
-2.8472e-06
2.8303e-09
1.6761e-06
6.2883e-07
-2.3078e-06
1.6209e-06
-2.1833e-06
5.6525e-07
9.9283e-08
1.2539e-06
3.2295e-07
4.6377e-07
2.4092e-08
2.7806e-06
1.1563e-06
-4.6365e-07
-9.1996e-07
2.273e-07
-7.0256e-07
2.799e-06
-8.1332e-07
-2.4493e-06
2.2442e-06
-1.4768e-07
3.5398e-06
3.4977e-07
1.0614e-06
2.546e-06
1.8889e-06
-6.5947e-07
2.0711e-06
-1.5765e-07
6.363e-07
-9.7278e-07
1.3157e-06
-1.0714e-06
-2.7287e-06
3.4056e-06
1.4913e-07
-2.2389e-06
4.2242e-06
9.7721e-07
-2.0425e-06
1.2128e-06
1.5182e-06
-6.885e-07
1.9003e-06
-2.9699e-06
-9.7274e-07
-2.3296e-06
2.7521e-06
7.9037e-07
-8.4921e-07
1.0928e-05
-9.6493e-06
-1.6838e-06
5.9579e-06
4.995e-06
1.2678e-06
-2.584e-06
-2.5476e-08
2.2309e-06
-1.8162e-06
-7.6284e-07
3.3157e-06
1.8107e-06
-1.0807e-06
3.5493e-07
-1.4563e-06
1.7377e-06
-2.6588e-07
1.0417e-06
-7.2204e-07
-1.5713e-07
-8.2116e-07
2.0457e-06
-7.2242e-07
-1.2642e-06
-5.9107e-08
-4.8555e-07
2.2436e-06
2.8775e-07
2.4474e-06
-2.2775e-06
-8.9228e-07
-1.7539e-07
2.1372e-06
-2.7074e-06
9.0506e-06
-1.8336e-06
-4.5096e-06
8.0718e-06
-1.0084e-05
-6.9698e-07
-3.328e-06
2.447e-06
9.9302e-06
3.1086e-06
1.6328e-06
1.4628e-08
2.5921e-08
9.1789e-08
-2.7718e-06
4.6401e-06
2.3559e-06
3.4243e-06
-2.1463e-06
-1.1289e-06
6.1817e-07
3.4398e-08
1.0661e-06
3.2149e-07
-4.238e-06
-5.7149e-07
7.1112e-07
4.0984e-06
-2.0778e-07
-2.4845e-07
-3.7817e-06
-3.5496e-06
2.7683e-06
-3.3395e-06
-4.1781e-07
2.2693e-06
-6.4058e-06
-1.8808e-06
-6.3421e-08
-1.1459e-06
-1.7057e-07
-6.3196e-07
7.3936e-07
-1.1601e-06
2.0665e-06
2.1429e-06
-3.4736e-06
4.3315e-06
7.7145e-07
4.8375e-06
1.5832e-06
3.6907e-06
3.3423e-06
1.517e-06
3.757e-06
1.4118e-05
-1.2641e-05
-2.1836e-08
-1.4553e-06
-9.1903e-06
1.8871e-05
4.4391e-06
1.6697e-05
-1.3833e-05
-1.5504e-05
-9.2954e-07
8.4371e-06
2.7552e-06
-3.027e-06
7.9691e-06
2.21e-07
-7.999e-07
-7.3902e-06
3.2665e-06
2.8221e-06
-1.3467e-06
4.5237e-06
5.9046e-06
5.0965e-06
-9.9749e-06
-1.0263e-06
2.232e-06
5.8143e-06
2.6995e-06
1.5459e-06
3.5965e-06
1.3341e-06
-5.268e-06
-5.8187e-06
6.0587e-06
-2.3375e-06
-3.5923e-06
2.5168e-06
-9.9284e-06
2.3233e-06
3.0023e-06
-4.7537e-07
-3.3265e-06
1.9174e-07
1.9188e-06
8.9195e-07
1.2376e-06
2.2209e-06
-2.6288e-06
8.8992e-07
3.0796e-06
1.5694e-06
-2.1617e-06
1.5522e-06
-3.7834e-06
-3.5285e-07
-1.619e-06
-7.0278e-06
1.2396e-06
2.196e-06
-3.3713e-06
-2.857e-06
-5.8861e-06
-7.4134e-06
1.2048e-05
3.5425e-07
1.2845e-06
1.8111e-05
-7.8448e-06
-1.1689e-05
1.422e-06
-4.5093e-06
1.1528e-05
1.1095e-05
1.9656e-05
-2.8288e-05
7.8953e-07
1.2122e-05
-3.2391e-07
-1.2008e-06
1.3471e-07
1.39e-06
-1.5257e-06
-2.4041e-07
1.4422e-06
-9.9874e-07
-3.571e-07
1.5505e-07
-1.2867e-06
-1.0871e-06
8.6387e-07
7.2851e-07
-3.5286e-06
4.1407e-06
5.8806e-07
7.3196e-06
1.514e-06
4.5425e-06
3.8729e-06
6.9313e-06
-1.0216e-05
9.8624e-07
4.4009e-06
4.148e-06
9.5378e-07
-4.2293e-06
5.8204e-06
-3.0701e-06
-1.9413e-08
1.836e-06
1.2535e-06
-1.3724e-06
-1.0295e-07
-1.5964e-06
-2.38e-06
7.6198e-08
2.2835e-06
-1.6e-07
7.7846e-07
-1.8578e-06
-8.9584e-07
1.9752e-06
8.4331e-07
1.1551e-06
-1.2231e-06
4.0383e-06
1.531e-06
-3.7518e-06
6.616e-07
5.2135e-06
6.7884e-06
4.9344e-07
-1.1933e-08
-4.8151e-07
-1.3916e-07
1.6263e-07
4.7e-07
1.135e-06
-1.1465e-06
-3.346e-10
5.2512e-07
-6.2301e-08
2.7386e-06
-1.4155e-06
6.5608e-07
1.488e-06
2.1679e-06
1.4942e-06
-5.2598e-06
4.4236e-06
-1.6025e-06
2.562e-06
1.8158e-07
-1.5124e-06
2.9305e-06
-4.1615e-07
1.9495e-06
4.3596e-08
-1.8119e-06
1.5038e-06
3.3749e-06
2.7956e-07
-2.6096e-07
-9.9743e-07
9.3319e-08
5.0798e-07
-9.1364e-07
3.9292e-07
5.6233e-07
-8.6192e-07
1.1224e-06
-1.0118e-06
-3.0226e-07
2.4688e-07
-4.1948e-07
-5.9744e-07
9.8368e-07
-3.4987e-07
-4.8066e-07
4.4556e-07
-3.097e-06
3.3011e-06
1.6066e-06
-4.7805e-08
-1.1602e-06
-3.0152e-06
9.5894e-07
1.605e-06
2.234e-06
-3.6451e-06
-1.604e-06
-4.4777e-06
2.9099e-06
2.5268e-06
-1.0779e-06
-1.1657e-06
2.2318e-06
3.5805e-07
1.1912e-06
4.0069e-08
4.5446e-08
2.4368e-06
1.5174e-06
-3.5961e-06
1.2654e-07
2.3503e-06
-2.2335e-06
1.6832e-06
1.2346e-06
-6.8441e-07
1.9859e-06
-1.907e-06
-2.3123e-06
-4.9219e-07
1.5842e-06
5.9128e-07
1.0841e-06
4.097e-07
-2.446e-06
3.6467e-06
3.8346e-07
-1.8352e-06
2.2991e-06
3.9613e-07
-1.1473e-06
2.9113e-06
-4.0956e-06
-6.4999e-07
1.8342e-06
-4.1809e-06
6.692e-07
6.4231e-06
2.4685e-06
-2.8247e-06
-3.7393e-06
-1.7037e-06
-8.7001e-09
-1.7867e-06
5.733e-07
2.5633e-06
-1.3498e-06
5.4583e-07
1.1211e-06
-1.7031e-06
3.2536e-06
-3.1057e-06
1.9485e-06
1.3542e-06
3.0389e-07
-1.6835e-06
8.1923e-08
1.2603e-07
1.2903e-06
4.0223e-07
1.2254e-06
1.4689e-07
1.6909e-06
-1.0764e-06
3.6538e-07
-1.4479e-07
3.6122e-06
1.7685e-06
-2.4039e-06
-2.9768e-06
1.9549e-06
2.6499e-06
3.1384e-06
-1.055e-06
-3.1481e-07
4.4407e-06
6.5275e-07
-9.1909e-07
2.6906e-06
4.3517e-07
4.5143e-06
-4.8744e-06
1.8527e-06
-2.0683e-06
1.8862e-06
4.6956e-06
1.5635e-06
7.8884e-07
1.2475e-06
-5.5665e-07
-6.1399e-07
-7.6844e-08
-2.8126e-07
6.1514e-07
1.1049e-06
-3.2965e-07
-1.3319e-06
4.3789e-07
3.8581e-07
3.8175e-08
2.317e-07
5.4479e-07
-8.1466e-07
2.8334e-07
-9.8917e-07
-1.6965e-07
6.8719e-07
2.5737e-06
1.1241e-06
-3.2928e-07
-3.3684e-06
1.1822e-06
-2.0219e-07
2.3864e-06
9.4186e-08
-1.3564e-06
1.5322e-06
2.0366e-06
-1.9216e-06
1.1581e-06
3.0905e-06
-3.3487e-06
-6.4205e-07
-3.8036e-06
2.2648e-06
1.7321e-06
3.2805e-07
2.0618e-08
-5.281e-06
5.6816e-06
3.2706e-07
3.4986e-06
-1.712e-06
2.4509e-06
-4.2342e-06
1.733e-06
-2.5279e-06
-4.3981e-06
5.193e-06
4.9146e-06
-2.4376e-06
3.8098e-06
-4.8802e-06
-3.4747e-07
1.7512e-06
-1.5345e-06
2.4118e-06
3.0461e-08
-1.6429e-06
3.8486e-06
3.7362e-06
-8.1063e-07
-2.1749e-06
-9.1134e-07
3.8968e-06
-3.393e-06
-1.9367e-06
4.5192e-06
2.1093e-07
-2.8593e-06
4.7352e-07
7.8156e-07
-3.9636e-06
-2.7478e-06
-5.0204e-08
2.4346e-06
3.6333e-07
-3.8501e-07
1.8751e-07
-2.0633e-06
1.7493e-06
2.638e-07
-2.1355e-06
-3.1284e-07
-2.5472e-06
-3.2772e-06
3.6334e-06
2.1909e-06
-5.1465e-06
2.6351e-06
-3.5718e-08
-6.5623e-07
-8.9669e-07
-1.7242e-06
-3.3744e-06
-2.4282e-06
6.7555e-07
2.2634e-06
7.2495e-07
-7.7278e-07
5.9263e-07
1.7526e-06
-3.521e-07
1.4107e-06
9.4849e-07
-6.0655e-07
2.081e-07
3.466e-06
1.7752e-06
-2.2545e-06
3.3023e-06
1.101e-05
5.3507e-07
-9.5172e-06
1.0334e-06
3.8498e-06
6.1257e-06
7.8469e-06
-5.7672e-06
3.6177e-06
1.4045e-06
-1.7455e-06
-4.0395e-06
5.4764e-06
7.6257e-07
-1.2157e-06
-1.4193e-06
1.4418e-06
7.165e-06
-4.7225e-06
-3.8843e-06
7.9741e-06
-3.9851e-06
-2.5472e-06
3.6163e-06
8.3058e-06
-4.7572e-06
-2.3467e-06
-7.3946e-06
-1.2937e-06
-2.9555e-06
1.1786e-05
-7.5372e-06
-5.607e-06
1.2417e-05
-8.1034e-06
-1.0826e-06
-1.5336e-05
1.3464e-05
1.0074e-05
-1.6764e-05
-2.8048e-06
2.7577e-06
1.5583e-06
-1.5113e-06
3.543e-06
-5.148e-06
-1.8262e-06
-1.4496e-07
4.729e-06
-2.3811e-06
4.0978e-06
-2.5549e-06
-1.7015e-06
4.1115e-06
-1.936e-07
2.5886e-06
-4.9499e-06
3.7522e-06
-6.3269e-06
-1.9322e-06
1.2528e-06
-1.0475e-06
-1.2705e-06
3.1691e-06
-3.8031e-07
1.8462e-06
-2.8637e-06
-1.3406e-06
8.3658e-08
2.5977e-06
-2.2577e-06
1.6633e-06
-1.3572e-06
-2.2242e-07
2.5072e-07
2.7348e-07
4.6023e-07
1.0969e-06
1.0747e-06
-8.9351e-07
-1.2781e-06
7.1835e-07
-5.3652e-09
3.8392e-07
2.8587e-06
-1.5656e-06
1.4663e-06
5.9644e-07
-1.7019e-06
1.746e-06
-1.319e-06
2.9551e-06
2.5729e-07
2.0363e-06
-2.3015e-06
-1.1323e-06
1.3974e-06
-2.764e-06
3.8891e-06
1.8271e-06
-1.814e-07
-3.9472e-06
1.7044e-06
-2.6412e-06
2.9475e-06
-2.4188e-07
-2.5181e-06
1.156e-06
1.6101e-06
2.1654e-06
1.4252e-06
-1.4318e-06
1.3725e-08
6.4533e-07
-2.7248e-07
-1.974e-06
-2.8172e-06
2.7831e-06
-7.1362e-07
-1.1914e-06
7.4488e-07
1.1602e-06
-3.7824e-07
-1.5852e-07
-1.7682e-07
-8.687e-07
-1.8793e-07
-6.5051e-07
-5.9635e-07
-1.1028e-05
4.7914e-06
-5.285e-07
1.9172e-06
-1.1759e-05
-6.8118e-07
-1.5496e-06
-2.0085e-06
-8.307e-07
1.4846e-06
-1.335e-06
1.7115e-06
5.9969e-07
-9.1968e-08
-1.2757e-06
3.1696e-06
-1.4141e-06
3.8315e-06
-1.9609e-07
-2.6501e-06
4.5283e-07
2.083e-06
1.2957e-06
6.4101e-06
-1.9006e-06
-4.7056e-06
2.7054e-06
4.1576e-06
3.0674e-06
-2.3575e-06
5.2299e-07
-1.2328e-06
4.0793e-06
1.6934e-06
-2.5382e-06
-1.7199e-06
1.0964e-06
-9.6621e-08
9.4209e-07
1.1846e-06
-2.139e-06
-1.4931e-06
-3.892e-06
-1.1141e-06
-1.0205e-06
3.3586e-06
4.1507e-06
8.4788e-06
-9.3473e-06
-3.2822e-06
6.5523e-06
-8.3142e-07
1.3266e-05
1.7658e-06
-6.3499e-06
9.604e-07
9.4673e-06
7.3261e-06
-1.4094e-05
1.3166e-05
-4.8813e-06
8.0139e-06
6.3388e-06
-1.4353e-05
-4.6067e-06
8.6404e-06
-1.1192e-05
7.1588e-06
1.142e-05
6.4516e-07
-1.2065e-05
-9.1644e-06
1.3043e-06
-6.2347e-06
-9.0638e-06
1.5438e-05
-1.5539e-05
-6.1869e-06
-1.7112e-06
9.201e-06
6.0452e-07
-1.5862e-05
-2.2524e-06
1.2677e-05
2.7411e-06
6.0406e-07
2.9867e-07
3.0581e-07
-3.5488e-05
-2.1604e-05
1.5531e-05
4.1561e-05
-4.334e-06
2.8338e-06
1.4605e-06
1.1636e-05
-4.2768e-07
1.0375e-06
4.0561e-07
-1.4431e-06
-1.1445e-05
2.9464e-05
-2.0214e-05
2.1949e-06
4.3986e-06
5.3336e-06
6.9038e-06
-1.6636e-05
-6.0496e-06
1.8718e-05
-8.269e-06
9.0127e-06
-7.5553e-06
1.2429e-05
1.1001e-05
-1.9632e-05
-8.2544e-06
2.3821e-05
-2.1614e-05
2.1897e-05
-8.5424e-06
-6.768e-06
-6.5862e-06
5.0041e-06
1.5177e-05
2.4809e-05
-3.1976e-06
-2.1012e-05
-5.9979e-07
-3.2718e-05
1.642e-05
7.7551e-06
-3.4556e-06
-9.7602e-07
-2.8283e-05
-1.931e-06
-4.1752e-06
8.5815e-06
-2.4753e-06
1.8449e-05
-9.5454e-06
-2.9443e-05
2.0539e-05
-1.5163e-05
-2.0533e-07
1.0889e-05
4.4794e-06
5.7905e-06
1.1115e-05
1.8139e-06
-4.4037e-05
1.6088e-05
3.3284e-05
1.1149e-06
-2.0372e-05
-1.3055e-05
6.4338e-06
-3.9003e-06
2.3592e-07
-2.7695e-06
4.8713e-07
9.799e-07
-1.467e-06
2.2073e-07
-7.0702e-08
-1.5002e-07
-4.9329e-06
2.5072e-06
-7.5492e-06
9.9749e-06
1.893e-07
-1.8367e-07
-5.6291e-09
1.2144e-06
-6.7834e-06
5.8907e-06
-3.2172e-07
1.0993e-06
-4.0171e-07
-6.9756e-07
1.6907e-05
-2.9229e-05
4.374e-06
7.9486e-06
1.5229e-05
-1.2493e-06
-2.2248e-05
3.5495e-05
-8.3783e-05
4.1452e-05
6.8364e-06
1.8627e-05
-1.9976e-05
2.3321e-05
-8.9496e-06
-3.0681e-05
-4.3077e-06
5.1766e-06
-2.1691e-06
1.3002e-06
-2.6406e-07
4.5336e-07
1.8054e-06
-2.6827e-06
-1.5758e-05
-1.3264e-05
2.8495e-05
-2.0966e-07
-1.4214e-05
4.4008e-06
9.813e-06
-8.701e-06
-3.3528e-05
2.0604e-06
-5.9589e-06
1.0166e-05
-3.4513e-08
2.5938e-05
-2.5903e-05
-1.3719e-05
-1.4202e-07
-3.6105e-06
4.0977e-06
-3.645e-06
1.5214e-05
3.1229e-07
-1.5527e-05
4.3204e-06
-8.6855e-09
1.9019e-07
-1.8151e-07
-1.5955e-08
-2.173e-08
3.7685e-08
6.7708e-06
-6.0642e-07
-1.6543e-06
-4.5102e-06
-5.3594e-06
8.5956e-07
1.4628e-06
3.037e-06
-1.7737e-05
-1.0036e-05
-6.6195e-06
-1.4548e-06
4.6134e-09
-2.0567e-08
-2.2206e-07
-2.8553e-05
4.6816e-06
2.4094e-05
2.1907e-06
-1.2107e-06
-1.2661e-06
-5.7539e-06
4.2982e-06
-8.7027e-06
-4.942e-06
-9.1232e-07
-8.1806e-09
-1.5058e-05
7.5108e-06
2.6001e-05
6.9782e-06
1.8316e-06
-2.281e-07
6.9811e-10
1.2215e-05
-6.6551e-07
2.0077e-05
2.3071e-07
4.0326e-05
-1.0429e-05
2.7488e-07
-2.7418e-07
1.6392e-05
-5.0929e-06
-9.2111e-06
3.692e-06
-2.3479e-07
-3.3273e-07
-1.0077e-05
3.745e-06
1.8032e-06
2.4993e-05
2.1325e-07
-1.6774e-05
1.6561e-05
8.2722e-07
-1.7395e-06
4.4397e-07
-6.0706e-06
6.0619e-06
4.999e-06
-2.3397e-06
1.6129e-05
-8.1993e-07
-1.7739e-05
-1.5123e-06
1.4717e-05
-1.0114e-05
3.8902e-06
-3.8856e-06
1.0506e-05
7.7922e-06
-1.4407e-05
1.5898e-05
4.6101e-07
3.9695e-07
-8.5797e-07
-8.6907e-08
1.304e-06
3.7412e-07
-6.795e-06
8.0991e-06
8.0683e-07
-4.3271e-07
2.5051e-05
-3.2825e-05
5.0534e-06
2.9398e-05
-3.7457e-06
-2.2639e-06
-2.3388e-05
-2.4993e-05
-8.3453e-06
1.0729e-06
7.2723e-06
-1.6055e-05
2.1535e-05
5.2144e-06
2.9142e-06
4.1752e-06
8.5717e-06
2.0851e-06
9.7461e-06
1.2976e-05
1.3688e-06
4.2834e-06
2.4675e-06
-2.4348e-07
-4.2102e-07
1.9603e-07
4.4915e-07
9.5855e-06
3.1831e-05
-1.6459e-05
-1.0804e-06
1.0431e-05
2.6827e-06
-6.3423e-06
3.5752e-08
-4.095e-06
4.0868e-06
-1.086e-05
-9.6681e-06
-3.1542e-06
-9.1439e-06
-8.1029e-06
6.386e-06
1.3667e-05
1.3663e-05
3.2123e-06