/*--------------------------------*- C++ -*----------------------------------*\\
| =========                 |                                                 |
| \\      /  F ield         | OpenFOAM: The Open Source CFD Toolbox           |
|  \\    /   O peration     | Version:  v1706                                 |
|   \\  /    A nd           | Web:      www.OpenFOAM.com                      |
|    \\/     M anipulation  |                                                 |
\\*---------------------------------------------------------------------------*/
FoamFile
{
    version     2.0;
    format      ascii;
    class       volVectorField;
    location    "2";
    object      U;
}
// * * * * * * * * * * * * * * * * * * * * * * * * * * * * * * * * * * * * * //

dimensions      [0 1 -1 0 0 0 0]


internalField   nonuniform List<vector>
7155
(
(0.002636 -0.0021957 0.013704)
(-1.1777e-07 3.9272e-07 -7.912e-06)
(7.5507e-07 2.2285e-07 -7.5467e-06)
(-0.0060601 0.0010195 0.0071665)
(1.076e-06 -7.0816e-07 6.7307e-06)
(-0.010561 0.0022098 0.0048572)
(3.8277e-06 -8.8951e-07 1.1748e-05)
(0.0040355 0.014626 0.01218)
(-0.012549 -0.0011974 0.0030386)
(-0.0054024 -0.0077323 -0.0034095)
(-0.009082 -0.0040597 0.0027535)
(-0.0048569 0.0060739 0.008058)
(2.298e-06 2.944e-06 2.7525e-05)
(-0.00014233 -0.019428 -0.0013018)
(-0.0026429 0.01921 -0.0016664)
(-7.2168e-07 1.2534e-06 -5.8146e-05)
(0.0030114 -0.0011251 0.006305)
(-0.0071981 -0.0009206 -0.0083729)
(0.0017351 0.0020334 0.010757)
(-1.9437e-06 -7.3669e-07 -1.5767e-06)
(-0.0066165 0.0018714 0.0015683)
(-0.0011433 -0.012968 0.00073628)
(-6.4221e-06 5.6111e-07 -2.3587e-05)
(-5.5435e-06 -2.6466e-06 3.0532e-05)
(0.0075089 -0.02559 0.03038)
(0.018737 -0.0093749 -0.0094147)
(0.012736 0.018971 -0.0099977)
(8.6621e-06 -7.5122e-06 4.5021e-05)
(-9.0596e-07 4.3641e-07 -1.4131e-06)
(-0.0002773 -0.0097725 0.018363)
(-0.0040258 -0.0023434 0.019187)
(0.00038008 -0.002865 0.018534)
(-0.0025971 0.0017331 0.012455)
(-0.0062537 -0.0001085 0.02427)
(-0.0067664 -0.0089669 0.062819)
(-0.006227 -0.008611 0.060173)
(-0.0044036 -0.010272 0.064782)
(-0.0032037 -0.0097256 0.065885)
(-0.0041369 -0.0098244 0.062608)
(0.00080698 0.005028 0.014431)
(-0.010075 0.014191 0.0064914)
(-0.0066764 0.018277 0.003755)
(0.0021496 -0.007868 0.010702)
(-0.0037015 -0.0050796 0.034959)
(0.0071444 -0.0038079 0.016066)
(-0.018339 -0.0010958 0.044823)
(0.0074617 -0.0080791 0.011975)
(-9.826e-08 1.6335e-07 -2.5978e-06)
(-0.0023585 -0.0065097 0.019042)
(-5.3116e-07 1.4415e-07 -8.1744e-06)
(-0.011743 -0.0028127 0.05565)
(-0.011367 -0.015903 -0.032166)
(-1.3546e-06 2.9473e-06 3.4923e-05)
(0.00059087 -0.0050223 -0.017726)
(0.014445 -0.022549 -0.026558)
(0.00040701 0.00026746 0.026384)
(1.3396e-06 7.4035e-07 -5.714e-06)
(-1.0056e-06 5.924e-07 -1.7098e-05)
(-0.0082299 -0.013824 0.029685)
(0.0036681 -0.011927 0.065585)
(0.0022422 -0.011571 0.06809)
(0.00099215 -0.009683 0.062124)
(-0.00028141 -0.010972 0.06367)
(0.004439 -0.013985 0.067388)
(0.00051297 -0.010227 0.066547)
(0.0034181 -0.012571 0.065856)
(-0.00024799 -0.010419 0.067875)
(-0.00019967 -0.0095805 0.067892)
(-0.0010278 -0.0089018 0.06466)
(0.0046439 -0.014528 0.064512)
(2.9315e-07 -9.869e-08 -8.7736e-07)
(0.0022176 -0.0034681 0.0097121)
(-0.0024751 0.0012094 0.028047)
(0.0042026 -0.0010587 0.025038)
(0.0028452 -0.008833 0.018004)
(-0.0036496 0.0053489 0.0089207)
(3.9832e-08 -6.9209e-08 -7.8404e-07)
(-0.0050417 0.024746 0.0017228)
(0.026475 0.00427 -0.013911)
(0.029677 0.0080535 0.0055497)
(-0.003014 0.010567 -0.008438)
(0.0027958 -0.0005241 0.0068069)
(-0.0093943 0.011914 0.00093198)
(0.025949 -0.002735 0.0091987)
(1.8719e-07 2.6779e-06 2.6329e-05)
(-0.0033632 0.016537 -0.0061463)
(-1.7789e-06 -1.6285e-05 1.2508e-05)
(0.0090479 -0.0020317 0.0058567)
(-0.0023368 -0.023575 0.0019903)
(0.0013902 -0.0068904 0.013241)
(-0.012769 -0.0061768 0.047744)
(-0.0086307 0.0025336 0.049885)
(-0.014101 -0.018668 0.057454)
(-0.0086855 -0.015596 0.049443)
(-0.0012019 -0.0028247 0.029303)
(7.5756e-05 -0.0092006 0.028979)
(0.00059556 -0.00542 0.045055)
(-0.0046875 -0.0090232 0.042791)
(-0.002272 -0.009317 0.044621)
(-0.0027634 -0.0088365 0.033985)
(-0.0036414 -0.0084358 0.042461)
(-0.00094853 -0.010056 0.049347)
(-8.6693e-08 2.0014e-06 -3.2968e-06)
(-0.0063465 -0.013604 0.004525)
(-0.0060249 -0.010472 -0.0010085)
(0.017132 -0.002144 0.007086)
(-3.7548e-06 2.3803e-06 5.1908e-05)
(-0.012619 0.00061847 0.021354)
(0.00050986 0.016574 0.0048344)
(-0.0052569 8.3472e-05 0.02306)
(-0.0027418 -0.0053632 0.026401)
(-0.0035819 -0.0070226 0.039885)
(0.012683 -0.0067429 0.046653)
(0.015422 -0.0038134 0.033115)
(-0.00429 -0.00862 0.051065)
(-0.0015678 -0.0039595 0.054132)
(-0.0041545 0.0086144 -0.016371)
(-0.00063329 -0.0019571 -0.012779)
(-0.012111 -0.0063723 -0.0037967)
(0.00050352 -0.0022077 -0.0051651)
(0.00068306 -0.0099324 0.066272)
(0.0026068 -0.012056 0.067564)
(0.0056249 -0.0077115 0.063843)
(0.0058446 -0.0079081 0.064591)
(0.001783 -0.010371 0.064696)
(0.0084221 -0.0038581 0.053774)
(0.010461 -0.00075921 0.04938)
(0.009463 -0.0063966 0.056677)
(0.015882 -0.0019224 0.057204)
(0.022531 0.0013416 0.052964)
(0.029524 0.0057553 0.051594)
(0.03855 0.0027973 0.049084)
(0.014742 0.00045389 0.046518)
(-7.3436e-06 1.2064e-05 -4.2409e-05)
(-0.0080763 -0.0018825 -0.0099055)
(0.0019414 -0.012034 0.0039052)
(-0.0056267 -0.009975 0.0015905)
(0.0084396 0.0011069 0.01898)
(-0.0052986 0.0052472 0.0022976)
(4.9008e-06 4.7775e-06 7.7225e-05)
(0.021362 -0.0035403 0.020632)
(-0.010011 -0.010625 -0.014126)
(-0.0098884 0.0042869 -0.023089)
(-0.023144 0.0036034 -0.016581)
(-0.028722 -0.003347 -0.016528)
(-0.024053 0.0070207 -0.0093281)
(-4.0303e-07 7.5705e-07 -7.6408e-07)
(0.0038271 0.0008616 0.010982)
(-0.0045235 0.0013584 0.0040091)
(0.00045833 -0.00076842 0.019235)
(-0.0020404 -0.0080901 0.023807)
(-0.00094585 0.00042707 0.0058664)
(-8.55e-07 6.2997e-08 -1.17e-05)
(-0.0038417 -0.0052141 0.031555)
(-0.0049679 -0.0054666 0.0327)
(-1.4175e-06 1.0192e-06 -4.7307e-05)
(-0.006256 0.00186 0.017116)
(-0.004377 -0.0031127 0.024676)
(-0.0037983 -0.0026419 0.024009)
(-0.0029095 -0.0086732 0.040848)
(-0.0035904 -0.0063403 0.037885)
(-0.0039754 -0.0067945 0.041842)
(-0.0016206 -0.0074759 0.033363)
(-0.0041084 -0.0020035 0.011873)
(0.0031617 -0.002357 0.017656)
(5.6827e-05 -3.3328e-05 0.00018329)
(-0.010043 0.0053424 -0.04359)
(0.016646 0.006478 0.0069059)
(0.011222 -0.0025815 0.0038246)
(0.0051777 -0.00506 0.0024748)
(1.3604e-06 -4.216e-06 3.9054e-05)
(4.1718e-06 -1.698e-06 2.471e-05)
(0.0059207 0.0105 0.0060966)
(0.00090395 0.012332 0.0063693)
(2.9684e-06 -5.6189e-06 5.2125e-05)
(1.0914e-06 -4.4916e-06 3.516e-05)
(0.012403 -0.00099733 -0.026348)
(0.0031963 -0.0037012 -0.03171)
(0.011338 -0.0038462 -0.016129)
(0.010301 -0.0090799 -0.018404)
(0.0018004 0.0032805 -0.018794)
(0.0037261 0.0077658 -0.010998)
(0.0069623 -0.0027481 -0.011708)
(0.012259 -0.0024918 -0.010579)
(-0.0062572 0.011256 -0.0031542)
(5.2414e-06 1.1313e-06 2.7904e-05)
(-0.022001 -0.0088481 0.0043336)
(-0.010262 -0.0026976 0.019013)
(0.0008674 -0.0018915 0.027805)
(-0.0078103 -0.0048405 0.017967)
(-0.0076885 -0.0063196 0.019061)
(-0.00011786 -0.0044881 0.014136)
(-0.0003931 -0.0082822 0.018933)
(0.00039124 -0.0072971 0.010545)
(-1.3004e-07 3.6088e-07 -1.283e-05)
(0.00098146 -1.6e-05 0.0066744)
(-1.0814e-07 -1.5136e-07 -2.0136e-05)
(-0.0008563 0.0023624 0.0072011)
(3.3355e-07 -8.3101e-07 -4.6647e-07)
(0.0015571 -0.0013882 0.0030572)
(-1.6892e-06 9.4165e-07 4.2917e-07)
(0.0016106 -0.00010822 0.010413)
(-0.0003722 -0.00049952 0.013015)
(0.00013566 -0.0042539 0.017817)
(-0.018436 -0.014529 -0.024061)
(7.1207e-06 4.3406e-06 3.5549e-05)
(-0.012874 -0.019825 -0.0021706)
(-0.0023306 -0.011877 0.066986)
(-0.0014761 -0.0090645 0.065114)
(-0.0024628 -0.011999 0.064567)
(-0.0009465 -0.0099465 0.06366)
(-0.0043195 -0.0081278 0.067003)
(-0.0024965 -0.010873 0.063661)
(-0.00020274 -0.0086388 0.063766)
(0.0038297 -0.00067349 0.017666)
(8.7522e-07 1.9402e-07 -1.7827e-05)
(-0.0079278 -0.0045183 0.013926)
(0.0045636 0.0038396 0.016119)
(-0.0012598 -0.010384 0.066257)
(-0.0005422 -0.010093 0.065298)
(-0.0022683 -0.0099135 0.062626)
(-0.0023747 -0.010556 0.061311)
(-0.0036194 -0.0085797 0.059658)
(-0.0026291 -0.0087383 0.063237)
(-0.004061 -0.010763 0.064925)
(-0.0048303 -0.012035 0.064504)
(-0.0019344 -0.011161 0.060821)
(1.0643e-07 -2.637e-07 -1.124e-06)
(0.00073407 -0.0029589 0.0099703)
(0.00039301 -0.0022614 0.016722)
(0.003307 -0.00096086 0.0088341)
(0.0010364 -0.0080347 0.014103)
(-0.00036603 -0.0074637 0.020163)
(-0.0030975 -0.0010356 0.0044807)
(8.8886e-09 7.7981e-08 -1.5936e-06)
(-0.0019799 -0.0057836 0.045608)
(-0.0027102 -0.0073502 0.046947)
(-0.001495 -0.0078672 0.043212)
(-0.00088712 -0.0075326 0.044086)
(-0.0019236 -0.0039855 0.051601)
(0.00060419 -0.0063668 0.055172)
(0.00057602 -0.0054758 0.054857)
(-0.00057386 -0.006015 0.050617)
(-0.046089 0.0077936 -0.0010268)
(-0.060665 -0.012682 -0.017453)
(-0.076196 0.0098204 0.01318)
(-0.068511 0.0016022 -0.025019)
(-0.044242 -0.00042862 -0.007684)
(-0.041016 -0.011425 -0.0391)
(-0.031607 -0.016816 0.0029346)
(-0.010445 -0.00057465 0.025957)
(1.57e-05 -4.3036e-06 -0.00019164)
(-0.01506 0.0068515 0.021616)
(-0.019521 -0.00019445 0.018025)
(-0.0021616 -0.0052095 0.025382)
(-0.0020451 -0.0058429 0.029228)
(-0.0027852 -0.0063857 0.035182)
(-0.0031314 -0.0046637 0.031812)
(-0.0035492 -0.0034556 0.024979)
(-0.0022921 -0.0058062 0.024514)
(-0.0029492 -0.0030748 0.012773)
(-0.0017269 -0.0030241 0.0098822)
(0.0011372 -0.0014055 0.050379)
(-0.0017156 -0.0018991 0.042578)
(0.0035355 0.0027803 0.03909)
(0.0070718 3.1947e-05 0.030882)
(-0.0056261 -0.00050007 0.0078469)
(-0.0042861 -0.008218 0.0076842)
(0.00034225 0.0098827 0.0015423)
(-0.014817 -0.017914 0.0061069)
(-0.01134 0.0066634 0.0057951)
(-1.1742e-05 1.4449e-05 -3.8624e-05)
(-0.0023456 0.0033094 0.017921)
(0.005646 0.0020468 0.006233)
(-0.0027507 -0.00049792 0.0048866)
(-2.6188e-07 3.2305e-07 -1.7984e-06)
(0.00065398 -0.0062618 0.0081503)
(-0.0011142 -0.0055466 0.012256)
(-0.0010766 -0.0031828 0.029529)
(0.00065324 -0.0050071 0.023254)
(-0.0013724 -0.0042789 0.035252)
(-0.00092394 -0.0067174 0.030582)
(-0.074667 0.022662 -0.042363)
(-0.06904 0.01901 -0.06829)
(-0.0702 0.0060956 -0.048343)
(-0.080157 0.0111 -0.03605)
(-0.0040004 -0.0059685 0.031392)
(-0.00073876 -0.006682 0.039815)
(-0.0050955 -0.0068552 0.044031)
(-0.0034835 -0.0076072 0.044201)
(-0.072286 0.0065279 0.010244)
(-0.073099 0.0076907 0.027784)
(-0.070531 -0.0018081 0.01786)
(-0.074958 -0.0055131 0.022261)
(-0.065433 -0.010086 0.047067)
(-0.076176 -0.00043665 0.035722)
(-0.076957 -0.0042099 0.019121)
(8.5862e-06 1.8113e-06 -2.8701e-05)
(-0.011211 0.0064942 0.025128)
(-0.020406 -5.6742e-05 0.010293)
(-0.0057168 0.0044718 0.015958)
(0.007377 -0.00086555 0.0075641)
(-1.1827e-06 1.7392e-06 -1.0735e-05)
(0.00014654 0.0017609 0.0028665)
(0.0042314 0.0045277 0.01081)
(1.0619e-05 -1.9529e-06 4.5711e-05)
(0.0035484 0.003154 0.00015943)
(-0.0034944 -0.0038493 -0.0020249)
(0.0027262 -0.015476 0.0087924)
(-0.0005331 0.0061716 0.010907)
(-0.0034928 0.014587 0.00024444)
(-0.003273 0.012987 -0.0053104)
(-0.011343 -0.0044906 0.0032442)
(0.005627 -0.010369 -0.016037)
(-0.0095835 -0.0021526 -0.003155)
(-0.02455 -0.0015789 -0.0061151)
(0.010329 1.6392e-05 -0.0051507)
(0.0078314 -0.0026597 -0.001737)
(0.012128 0.013419 0.0020019)
(0.0066807 0.012499 0.0098185)
(0.0050547 0.012694 0.0015881)
(-0.0051779 -0.00033754 -0.0080504)
(0.0034177 0.016028 0.00026978)
(0.0071783 -0.018166 -0.018993)
(0.012879 -0.0033771 -0.018651)
(-0.021048 -0.0031087 -0.04247)
(-0.028741 0.0019687 -0.026649)
(-0.04216 0.007418 -0.050833)
(-0.034063 -0.0084975 -0.032106)
(-0.0014245 0.0011153 -0.03203)
(0.018638 -0.017692 0.0030986)
(-0.0075741 -0.0060502 0.0027824)
(-5.0759e-06 -9.9351e-06 -8.9761e-06)
(-0.014688 0.028878 0.000863)
(-0.016445 0.012212 -0.0029564)
(-4.3942e-07 -2.3968e-06 9.8582e-07)
(1.7854e-06 4.0263e-07 4.1636e-06)
(0.0052984 0.0039816 0.0079214)
(-0.0037893 -0.0032371 0.0042622)
(-0.02754 0.012867 -0.033449)
(-0.027567 0.014636 -0.030165)
(-0.015872 0.0066468 -0.013821)
(-0.015713 0.010152 -0.026504)
(-0.017098 0.028498 -0.0065281)
(0.00082192 -0.0015069 -0.0096368)
(0.004899 0.024031 -0.018923)
(-0.015148 0.01841 -0.045217)
(-0.072575 0.0069551 -0.01567)
(-0.067632 0.010168 0.0024837)
(-0.075463 -0.0022949 -0.01802)
(-0.076631 0.013163 -0.002327)
(-0.059497 -0.0028084 -0.01258)
(-0.069095 -0.0008437 -0.026985)
(-0.072443 -0.0054589 0.0048976)
(-0.00011031 -0.0018304 0.058035)
(-0.0010054 -0.0062412 0.054539)
(0.0003049 -0.0071309 0.059734)
(-0.0020878 -0.011203 0.060782)
(-0.022105 0.012747 0.011858)
(-0.026082 0.0017739 0.0026628)
(-0.011862 -0.018637 0.0015654)
(-0.025801 -0.0072606 -0.0044025)
(-0.018917 -0.0053613 0.017364)
(0.0022741 -0.0016105 0.0087864)
(-1.0002e-07 1.0043e-07 -4.3792e-06)
(-0.00070749 0.00024459 0.0074413)
(0.0009612 0.00305 0.019201)
(-0.013191 -0.0021672 0.023041)
(-0.0058404 -0.0038575 0.020833)
(-0.028845 -0.0049321 0.011208)
(-0.028387 -0.00715 0.029113)
(0.0020204 -0.0022949 0.012314)
(-0.00030171 -0.003071 0.018628)
(3.4584e-07 5.824e-07 -6.9235e-06)
(-0.0011235 -0.0051687 0.018304)
(0.00050924 -0.0071339 0.051092)
(-0.00022177 -0.0071402 0.04973)
(-0.0013795 -0.0075172 0.047464)
(-0.00013912 -0.008499 0.040629)
(0.00012441 -0.0092747 0.039386)
(-0.0017755 -0.0052666 0.038009)
(-0.0019224 -0.0068761 0.046238)
(0.00099926 -0.0081723 0.041172)
(0.001675 -0.0099716 0.041058)
(0.00086241 0.0019908 0.018286)
(6.5975e-06 -1.0313e-05 -4.4121e-05)
(0.0053851 0.0010348 0.018986)
(0.0022863 -0.0045389 0.022855)
(0.010115 0.0041304 0.011189)
(0.0086656 0.00014478 0.020672)
(0.0029956 0.002197 0.0036041)
(-1.5944e-06 -7.4897e-07 -6.9824e-05)
(0.0025313 -0.0059978 0.047384)
(-0.0019999 -0.0076867 0.042032)
(-0.0018204 -0.0068658 0.04182)
(-9.0437e-05 -0.0059514 0.045782)
(0.00075544 -0.0057414 0.04924)
(-3.7193e-06 2.1095e-06 -9.6063e-06)
(-0.011921 0.0021633 0.011801)
(0.0032427 -0.0082481 0.016658)
(-0.0032076 -0.0020688 0.0093083)
(-5.6194e-05 -0.0058835 0.063348)
(-0.0028493 -0.0048037 0.066566)
(-0.0042573 -0.0048775 0.063024)
(-0.0037959 -0.0060373 0.053963)
(-0.0058108 -0.0070284 0.0605)
(-0.004926 -0.0081707 0.066943)
(-0.0041582 -0.0076284 0.065993)
(-0.0045512 -0.0092111 0.06793)
(0.0017482 -0.006112 0.059425)
(-0.0010443 -0.0067982 0.059995)
(-0.0011519 -0.006231 0.062509)
(8.8242e-05 -0.0082825 0.0642)
(-0.0033986 -0.0097181 0.058501)
(-0.0027406 -0.010878 0.060331)
(-2.7435e-07 -0.0060404 0.060133)
(-0.0019499 -0.0089361 0.063651)
(-0.0022186 -0.007909 0.064238)
(-0.0013266 -0.0075157 0.053553)
(-0.000923 -0.0082041 0.052163)
(-0.0013931 -0.010597 0.055661)
(-0.0016908 -0.0080346 0.044577)
(-0.0015649 -0.0068848 0.05294)
(-0.001491 -0.0081566 0.046575)
(-0.0027314 -0.0092462 0.060034)
(-0.0027441 -0.0070524 0.061411)
(-0.0032801 -0.0071458 0.05457)
(-0.0015246 -0.0076754 0.053097)
(-0.0039772 -0.007861 0.054563)
(-0.0026274 -0.008613 0.054396)
(-0.0032748 -0.0066833 0.049233)
(-0.0040239 -0.0075963 0.049917)
(-0.0027429 -0.0058261 0.06221)
(-0.0048226 -0.0054291 0.062112)
(-0.00060868 -0.0064195 0.06165)
(-0.0014557 -0.0095675 0.05801)
(2.3617e-06 4.4222e-06 -6.4779e-06)
(-0.010045 0.0038387 0.015646)
(-0.011455 -0.012377 0.014741)
(-0.010398 -0.0034215 0.011082)
(0.010548 -0.0059098 0.04618)
(0.0068726 -0.0009214 0.043682)
(0.004124 0.00011478 0.019714)
(0.0031345 -0.0054532 0.02374)
(0.0014157 -0.003455 0.0062425)
(-6.2287e-07 -2.878e-07 -1.6564e-06)
(0.00053941 -0.0019144 0.0074518)
(0.0012501 -0.00061478 0.037813)
(-0.00037719 -0.0034246 0.039755)
(0.0017196 -0.0029395 0.029126)
(-0.00020881 -0.0058663 0.034631)
(0.0091857 -0.0092562 0.005553)
(0.015845 -0.0043968 0.0060522)
(0.0060317 -0.01432 0.0029101)
(0.0025407 -0.0024864 -0.0021695)
(0.0072567 0.010484 -0.00088496)
(-0.0024302 -0.0012704 0.0082032)
(0.0026213 -0.0041279 0.057163)
(0.008616 -0.0026989 0.043315)
(0.0062031 -0.0035137 0.04445)
(0.0037894 -0.00084013 0.049214)
(-0.00076029 -0.0024426 0.057155)
(-0.00065113 -0.0057962 -6.8931e-05)
(-2.6319e-06 -5.1452e-06 1.0631e-05)
(-0.010389 -0.0060216 -0.003107)
(-0.015556 0.0072863 8.9585e-05)
(5.5698e-06 -5.8775e-06 4.1749e-05)
(0.0015121 0.0041376 -0.0034191)
(3.9607e-06 7.4822e-07 -3.9117e-06)
(-0.00071043 0.00082189 0.0055934)
(-0.0094522 0.010789 0.0078092)
(-0.0017711 -0.0070343 0.05552)
(-0.0010654 -0.0089202 0.051352)
(0.00025756 -0.0077417 0.050546)
(-0.0020861 -0.010421 0.055003)
(0.0014321 -0.0048903 0.058238)
(0.0009009 -0.0052568 0.060449)
(-0.00054818 -0.0033317 0.059171)
(-0.00041631 -0.0023166 0.058119)
(0.0023972 -0.0012079 0.059329)
(0.0019148 -0.0031514 0.060747)
(-0.00056273 -0.0049032 0.059515)
(0.0033167 0.00033487 0.058232)
(0.0062848 -0.0013099 0.053042)
(0.0021613 -0.0011787 0.057299)
(-0.00058568 -0.0076228 0.06235)
(-6.2757e-08 5.2812e-08 1.2024e-06)
(0.00012124 -0.00073631 0.00039561)
(0.0012214 -0.0021218 0.0037909)
(-1.9615e-07 4.9883e-07 -8.8435e-06)
(0.0011275 -8.5078e-05 0.0024681)
(-1.8674e-07 4.8748e-08 -9.0544e-08)
(0.0049575 -0.0011143 0.0090227)
(0.0012555 -0.0019761 0.017217)
(0.0012469 0.0061616 -0.01193)
(0.0025312 0.0029667 -0.0016631)
(-0.00086886 0.014089 -0.0031084)
(-0.0070126 -0.010404 -0.0030105)
(-1.1845e-07 5.1712e-09 -5.9988e-06)
(-0.0010666 -0.0084085 0.014871)
(0.0022925 -0.00075994 0.024887)
(-0.0095125 -0.0071608 0.021113)
(-0.003569 -0.002287 0.033398)
(0.0016729 -0.0034566 0.032963)
(0.00013871 0.012595 0.014958)
(0.00032908 -0.0095628 0.055696)
(-0.0030171 -0.0076207 0.055402)
(0.0015216 -0.0089813 0.063683)
(-0.0055249 -0.007104 0.061505)
(-0.0078043 -0.006627 0.056375)
(-0.0049747 -0.0082404 0.05976)
(-0.0042008 -0.0091108 0.061479)
(-0.0062672 -0.0081647 0.058854)
(-0.015909 -0.0077624 0.070313)
(-0.018452 -0.010901 0.07022)
(-0.0083073 0.0022734 0.073453)
(-0.020207 -0.00068173 0.058284)
(0.00085356 -0.012669 0.059174)
(0.010214 -0.0032386 0.05868)
(0.0025712 -0.0046271 0.054307)
(-0.0079965 -0.0054624 0.058576)
(0.010853 -0.0076273 0.040358)
(0.004421 -0.0051915 0.046822)
(0.00059434 -6.4872e-05 0.026177)
(-0.012591 -0.012293 0.043961)
(-0.011732 0.0042571 -0.010005)
(-0.0013105 0.0064503 0.015497)
(6.6426e-06 -4.0671e-06 6.2932e-06)
(-0.043743 -0.027853 -0.040246)
(0.00018445 4.5195e-05 0.00063267)
(7.8311e-05 8.0807e-05 0.00037052)
(-0.0062223 -0.028393 -0.039858)
(0.022994 -0.053732 -0.029821)
(7.3012e-06 -2.5725e-06 -5.1866e-05)
(-0.0039518 0.0056056 0.028944)
(0.00051617 0.0032191 0.045053)
(0.0036062 0.0035213 0.044505)
(-0.0070149 -0.0019169 0.023787)
(0.042599 -0.00088654 0.035174)
(0.022476 0.012125 0.038395)
(0.0233 0.0093437 0.0211)
(0.055167 0.007585 0.033315)
(0.0013884 -0.0073738 0.029999)
(0.00074994 -0.0090639 0.03538)
(-0.0023628 -0.0064884 0.033584)
(-0.0013414 -0.0076424 0.036841)
(-0.00039481 -0.0075476 0.027381)
(0.00082346 -0.0080823 0.026998)
(0.0039783 0.022003 -0.003551)
(-0.0026284 0.010415 -0.0038286)
(-0.025888 -0.0043139 -0.0049545)
(0.00021195 -0.0051853 0.058539)
(0.0012071 -0.0045707 0.052458)
(0.0028251 -0.0021933 0.048333)
(0.0052803 -0.0026964 0.050183)
(0.0012714 0.00045812 0.037411)
(0.0041379 0.0047197 0.042004)
(0.00088709 -0.0048606 0.057451)
(6.6692e-08 5.4766e-08 -3.3737e-07)
(-6.9251e-08 -2.0892e-07 -4.9534e-07)
(0.0073804 0.0016367 0.0032979)
(0.0061782 0.0017569 0.0069128)
(-3.8454e-06 3.3754e-07 -1.2615e-05)
(0.007362 -0.0012257 0.0075192)
(-0.0068646 -0.0080665 0.013323)
(-6.8959e-06 -1.2005e-05 -0.00018851)
(1.7789e-06 3.5136e-07 7.7086e-05)
(-0.0086749 -0.01042 0.011123)
(-0.0051738 -0.0098512 0.0383)
(-0.0031444 -0.0078213 0.045849)
(-0.0026446 -0.0079347 0.042063)
(-0.0010332 -0.0077954 0.029018)
(-0.0062838 -0.01108 0.016678)
(-0.0075989 -0.024944 0.0017112)
(-0.0050645 -0.018485 0.042842)
(0.0017701 -0.015398 0.046821)
(-0.0026459 -0.021652 0.047044)
(-0.0047641 -0.011914 0.05163)
(-0.0053435 -0.012057 0.048523)
(0.0080096 -0.015117 0.053373)
(0.0024577 -0.01919 0.033439)
(-0.0081618 -0.020158 0.04084)
(0.0022307 -0.01503 0.062688)
(-0.00063826 -0.011011 0.060949)
(0.0028804 -0.015648 0.055401)
(0.0033019 -0.012369 0.058343)
(-0.0013921 -0.009779 0.058841)
(-0.002366 -0.0084818 0.054625)
(-0.0014164 -0.0094679 0.057767)
(-0.0023784 -0.0068641 0.0552)
(-0.007448 -0.01946 0.053176)
(-0.00048127 -0.0091803 0.053173)
(0.0015248 -0.011271 0.053465)
(0.0010154 -0.0097042 0.046472)
(0.0012653 -0.0088651 0.045136)
(-0.00035847 -0.0092273 0.050959)
(-0.0012681 -0.0077497 0.049192)
(0.00052552 -0.010575 0.061944)
(0.00033994 -0.0074347 0.06104)
(-0.0013963 -0.0091505 0.064619)
(-0.0020752 -0.0083727 0.068007)
(-0.0030156 -0.009989 0.066961)
(-0.0054407 -0.0065206 0.044538)
(-0.0029471 -0.0090324 0.05001)
(-0.0047443 -0.011773 0.051337)
(-0.0037652 -0.0087443 0.052692)
(-0.017387 -0.01559 0.053109)
(-0.014282 -0.019032 0.063291)
(0.002178 -0.0094526 0.045835)
(-8.5752e-05 -0.008548 0.045296)
(3.0523e-05 2.4546e-05 5.8347e-05)
(0.0025295 -0.014437 0.062632)
(-0.0016 -0.0051268 0.041367)
(-0.0038066 -0.0073614 0.048144)
(-0.0024992 -0.0080504 0.061073)
(-0.0022583 -0.0073278 0.055167)
(-0.001192 -0.0077457 0.051584)
(-0.0018949 -0.0081668 0.056509)
(-0.0023671 -0.0064906 0.04047)
(-0.0021942 -0.0070429 0.043979)
(-0.00087038 -0.0072497 0.049217)
(-0.0020591 -0.0082504 0.051513)
(-0.037085 0.0057952 0.0022621)
(-0.040402 -0.00075447 -0.012702)
(-0.037414 0.0026488 0.0081821)
(-0.033548 -0.0018487 -0.0031324)
(7.1814e-06 -6.1356e-06 5.2621e-05)
(-1.7574e-06 -1.2712e-05 -6.8083e-06)
(-0.0042187 -0.010363 0.069856)
(-0.001547 -0.010301 0.068138)
(-0.0031629 -0.010416 0.067727)
(-0.0057709 -0.0087294 0.053264)
(-0.0091311 -0.0037882 0.050829)
(-0.0074808 -0.0024687 0.049757)
(-0.0049432 -0.0079999 0.060078)
(-0.0044242 -0.010572 0.058819)
(-0.001082 -0.0033635 0.060963)
(-0.001321 -0.0036301 0.056441)
(9.2746e-05 0.00056543 0.0046639)
(-0.0086145 -0.00047994 -0.011422)
(-0.0027405 -0.0085563 -0.019246)
(-0.014137 0.0054738 -0.015949)
(0.0020815 -0.0069549 0.061915)
(0.0036823 -0.011774 0.064562)
(0.013047 -0.00081007 0.056347)
(0.0095195 -0.0078493 0.060817)
(-0.0050634 -0.016475 0.045209)
(-0.010753 -0.022205 0.059697)
(-0.0020901 -0.017278 0.068036)
(-0.0088564 -0.015963 0.066447)
(-0.0047332 -0.014934 0.064951)
(-0.010126 -0.013434 0.063822)
(-0.0067662 -0.0013564 0.049993)
(-0.004779 -0.00047438 0.050878)
(-0.0015981 -0.001257 0.058555)
(0.0078118 -0.0057792 0.060664)
(-0.025527 0.00097023 -0.010106)
(-0.0029725 -0.0065852 -0.023095)
(-0.032029 -0.0021185 -0.0013755)
(-0.0019613 -0.017638 0.0018179)
(-0.0045646 -0.010964 0.058332)
(-0.0069782 -0.011143 0.061256)
(-0.0050384 -0.011982 0.056385)
(-0.0044729 -0.0043627 0.034403)
(-0.0047029 -0.00042835 0.032405)
(-0.0048832 -0.0010887 0.043115)
(-0.0021894 0.0010224 0.043399)
(-0.0065069 -0.0038296 0.039068)
(0.00050084 -0.010009 0.045308)
(-0.0014067 -0.0092926 0.045939)
(-0.0071325 -0.011959 0.062629)
(-0.0064155 -0.011495 0.061617)
(-0.0057715 -0.011196 0.059035)
(-0.0066593 -0.015685 0.064397)
(-0.0020284 -0.0021587 0.0088692)
(-0.011402 -0.011881 0.024373)
(-0.0012153 -0.012907 0.044757)
(-0.027648 -0.016422 0.04851)
(-0.025794 -0.008922 0.045768)
(-0.0020681 -0.0012678 0.038844)
(-0.001215 -0.0043821 0.044095)
(-0.0062368 -0.00086126 0.033645)
(-0.0055871 -0.00047603 0.042348)
(-0.0063129 -0.0012561 0.033118)
(-0.0057898 -0.0058629 0.042713)
(-0.0027897 -0.0037098 0.046859)
(-0.0034912 -0.015554 0.059836)
(-0.0034675 -0.010814 0.060542)
(-0.0050119 -0.014594 0.052269)
(-0.0036807 -0.0096037 0.053543)
(-0.0077568 -0.0076639 0.04201)
(-0.0065181 -0.010395 0.045716)
(0.00066211 -0.009342 -0.022166)
(-0.0034444 -0.02044 -0.014999)
(0.0017113 -0.0070538 -0.026267)
(0.0040303 -0.016328 -0.022321)
(-0.0012311 0.00070421 -0.0085128)
(-0.0024462 -0.0041525 -0.0013174)
(0.0018422 -0.0099758 0.063697)
(0.0043899 -0.0098735 0.065594)
(-0.0022048 -0.011037 0.067761)
(6.0271e-07 -3.5083e-07 -1.1235e-05)
(-0.0030409 -0.0023792 0.0087078)
(0.0030641 -0.0052645 0.01332)
(0.0059629 -0.0084375 0.012686)
(0.0135 0.00085436 -0.0038635)
(0.0049875 -0.010786 -0.01598)
(-0.014518 -0.014832 -0.0044073)
(-0.0076337 -0.014687 -0.0045727)
(-0.020155 -0.0082546 -0.0021815)
(0.0044446 0.0023208 -0.0070194)
(0.011666 -0.018383 -0.0037748)
(0.0032706 -0.0066474 -2.3093e-05)
(0.0053221 -0.0084881 -0.0021218)
(-0.0046086 -0.012327 0.056688)
(0.0023422 0.0012009 0.025739)
(0.00036014 -0.0068198 0.032178)
(0.00097762 -0.0087388 0.032419)
(0.0014122 -0.0054194 0.041594)
(0.00028551 -0.0070587 0.0535)
(-0.00039638 -0.0056642 0.044987)
(0.00025941 -0.0063093 0.026904)
(0.00091713 -0.0081645 0.029291)
(-0.00030048 -0.008196 0.029288)
(-0.0042734 -0.0087947 0.056949)
(-0.0015528 -0.0083944 0.05563)
(-0.003341 -0.0043792 0.055863)
(-0.0033517 -0.0068875 0.058451)
(-0.0029444 -0.0089809 0.058949)
(-0.0035399 -0.0068388 0.05868)
(-0.00027273 -0.011673 0.069976)
(-0.00045501 -0.0096056 0.069298)
(-0.00085689 -0.011374 0.070446)
(-0.0014131 -0.0118 0.069586)
(-0.012636 -0.0056641 0.031642)
(-0.0089234 -0.0034282 0.039171)
(-0.008633 -0.0057466 0.040981)
(-0.0084232 -0.0031935 0.040892)
(-0.0055832 -0.0030191 0.05251)
(-0.005343 -0.0049561 0.054658)
(-0.0061124 -0.0041224 0.045764)
(-0.00013841 -0.0084512 0.070167)
(0.00077597 -0.0089229 0.072537)
(0.0016093 -0.0092251 0.071247)
(-0.00023413 -0.009928 0.070643)
(0.0016108 -0.0044996 0.061221)
(0.0046122 -0.0043912 0.062001)
(0.0034293 -0.0064839 0.063265)
(0.0027315 -0.0062365 0.0659)
(-0.004488 -0.0074038 0.048718)
(-0.0037195 -0.006201 0.046833)
(-0.0021685 -0.0057807 0.051437)
(-0.0037144 -0.006718 0.050909)
(-0.0028453 -0.0079531 0.055478)
(0.00081356 -0.0069014 0.056025)
(-0.0033769 -0.0075232 0.057991)
(0.002614 0.0011215 0.0418)
(-0.001593 0.00036794 0.039846)
(0.000176 -0.00050744 0.038279)
(-0.0011164 -0.00081015 0.04289)
(-0.0013989 -0.0074689 0.04777)
(-0.0033655 -0.0078858 0.054682)
(-0.011139 -0.010119 -0.011992)
(-0.01653 -0.01491 -0.0016903)
(-0.0091539 -0.0074656 -0.0010237)
(0.00073725 -0.0053451 0.02569)
(-0.00040885 -0.0068291 0.029915)
(-0.0027374 -0.0048556 0.03086)
(-0.0014395 -0.0055729 0.032662)
(-0.002223 -0.0060056 0.037161)
(-0.0013508 -0.0069461 0.039367)
(-0.00078718 -0.0023829 0.029394)
(0.00039965 -0.0032675 0.032234)
(0.0026054 -0.0064646 0.035817)
(-0.0024396 -0.0058504 0.026774)
(-0.0039072 -0.0080194 0.037629)
(-0.0010313 -0.00795 0.036037)
(0.005151 -0.0021976 -0.026001)
(0.0017251 -0.0095174 -0.022393)
(0.0081697 0.00025021 -0.018819)
(-0.00033742 -0.0073833 0.047971)
(-0.0013088 -0.0061687 0.048552)
(-0.0018193 -0.0086751 0.054422)
(-0.0216 0.0044163 -0.0057381)
(-0.031662 0.010942 -0.025854)
(-0.031928 0.014237 -0.0074787)
(-0.0028303 -0.0039029 0.041932)
(-0.002373 -0.00045374 0.036621)
(-0.0011828 -0.0063114 0.050019)
(-0.0018022 0.0013023 0.02264)
(-0.0033331 0.0058953 0.034993)
(0.00035965 -0.0022706 0.03886)
(0.0011117 -0.0041566 0.046475)
(-0.0071519 -0.0038282 0.058432)
(-0.0079236 -0.0045304 0.058379)
(-0.0091308 -0.005968 0.05382)
(-0.0048546 -0.0035772 0.050997)
(-0.0017516 -0.0099965 0.069017)
(-0.0026948 -0.0094029 0.069105)
(-0.0011667 -0.0099322 0.069865)
(-0.0011026 -0.010962 0.070318)
(-0.0041824 -0.010225 0.064258)
(-0.0056524 -0.01096 0.060502)
(-0.0066846 -0.010774 0.062854)
(-0.003345 -0.010253 0.060849)
(0.0002496 -0.0063444 0.051108)
(-0.0018092 -0.0058012 0.041258)
(-0.0023478 -0.0043264 0.049227)
(-5.4294e-05 -0.0044176 0.047918)
(0.0011396 -0.0056507 0.052831)
(0.00012388 -0.0043368 0.060109)
(0.0024524 -0.0057288 0.062234)
(-0.034772 0.013575 -0.03108)
(-0.03634 0.010528 -0.024508)
(-0.029324 0.0027207 -0.035072)
(-0.016956 0.0039121 -0.027038)
(-0.0053914 -0.0074282 0.055496)
(-0.0048611 -0.0086913 0.056658)
(-0.0039752 -0.0073947 0.050461)
(-0.0010923 -0.0069642 0.077144)
(0.0067418 -0.010299 0.063849)
(-0.0012458 -0.010154 0.068817)
(0.0054579 -0.011945 0.071864)
(0.0034966 -0.01058 0.065621)
(-0.070084 0.010738 -0.035039)
(-0.059728 0.0075663 -0.033972)
(-0.085487 0.013656 -0.033291)
(-0.061959 0.0079261 -0.041199)
(0.0024411 -0.010425 0.030837)
(0.00036439 -0.008316 0.043892)
(-0.0024992 -0.010851 0.032816)
(0.003872 -0.011268 0.042718)
(-0.0073279 -0.0044641 0.035741)
(-0.0027827 -0.0061355 0.042558)
(-0.0028711 -0.0068562 0.053314)
(-0.0070182 -0.0037794 0.052193)
(-0.0064957 -0.0051538 0.048182)
(-0.0049723 -0.0038767 0.042997)
(-0.0017235 -0.002251 0.039131)
(-0.0023515 -0.0071209 0.032683)
(-0.00032475 -0.0014217 0.05365)
(0.00023588 -0.0054046 0.046275)
(0.00088607 -0.0051092 0.052764)
(0.001272 -0.0037709 0.046777)
(0.00059293 -0.0026125 0.033092)
(0.0029758 -0.0027848 0.026577)
(0.0020269 -0.0010894 0.044594)
(0.0040734 -0.0028305 0.042012)
(0.0043396 -0.0021574 0.048047)
(0.0013254 -0.0070251 0.050142)
(0.00016116 -0.0059064 0.049699)
(-0.0064176 -0.0081495 0.065395)
(-0.0057934 -0.011218 0.065014)
(-0.0069567 -0.010508 0.066606)
(-0.0072885 -0.010496 0.065297)
(-0.0041599 -0.01018 0.069467)
(-0.0052087 -0.0091061 0.069312)
(-0.0027211 -0.0092117 0.069878)
(-0.0042697 -0.0038118 0.038657)
(-0.0043342 -0.0049365 0.036579)
(-0.00032643 -0.0080707 0.067113)
(-0.00028429 -0.0082127 0.065992)
(0.0034088 -0.0038092 0.03073)
(0.0026663 -0.0031743 0.019361)
(0.0017695 -0.0018736 0.03061)
(0.0024435 -0.00056002 0.023932)
(-0.04992 0.0043271 -0.02085)
(-0.054895 0.012407 -0.022359)
(-0.042163 0.011602 -0.03428)
(-0.0016177 -0.0064512 0.050759)
(-0.0043804 -0.0085737 0.030353)
(-0.0081357 -0.0013112 0.022774)
(-0.0047195 -0.0012959 0.032015)
(-0.0067441 -0.004841 0.032423)
(-0.0040565 -0.0089376 0.062122)
(-0.0017592 -0.0077567 0.063243)
(0.00064851 -0.0086366 0.06718)
(-0.0012657 -0.008498 0.068588)
(-0.002793 -0.008399 0.067375)
(-0.0017579 -0.00885 0.067114)
(-0.001818 -0.0076177 0.067273)
(-0.0019876 -0.007156 0.061888)
(-0.00238 -0.0077818 0.057144)
(-0.0010149 -0.0056863 0.059939)
(0.0019315 -0.0089323 0.056819)
(-0.0043073 -0.01089 0.060716)
(-0.0047921 -0.0091229 0.064721)
(-0.0051191 -0.009205 0.065166)
(-0.012289 -0.012288 0.035436)
(-0.0052936 0.0046412 0.040774)
(-0.0086465 -0.0073529 0.045856)
(0.0027196 0.0048991 -0.015873)
(0.029712 0.03077 0.0064066)