/*--------------------------------*- C++ -*----------------------------------*\\
| =========                 |                                                 |
| \\      /  F ield         | OpenFOAM: The Open Source CFD Toolbox           |
|  \\    /   O peration     | Version:  v1706                                 |
|   \\  /    A nd           | Web:      www.OpenFOAM.com                      |
|    \\/     M anipulation  |                                                 |
\\*---------------------------------------------------------------------------*/
FoamFile
{
    version     2.0;
    format      ascii;
    class       surfaceScalarField;
    location    "0.45";
    object      mdot_f;
}
// * * * * * * * * * * * * * * * * * * * * * * * * * * * * * * * * * * * * * //

dimensions      [1 0 -1 0 0 0 0]


internalField   nonuniform List<scalar>
560
(
-0.00035967
-0.13845
-0.00061922
-0.14182
-0.00094178
-0.14511
-0.00086984
-0.14714
-0.00068332
-0.14832
-0.00053877
-0.14906
-0.0003978
-0.14957
-0.00025605
-0.14993
-0.00012389
-0.15019
-0.15038
-0.00041176
-0.13803
-0.00065257
-0.14155
-0.00086068
-0.14488
-0.00087747
-0.1471
-0.00076237
-0.14841
-0.00061762
-0.14919
-0.00046064
-0.14972
-0.00029943
-0.15008
-0.00014342
-0.15033
-0.15051
-0.00049088
-0.13753
-0.00074248
-0.14124
-0.00091255
-0.14466
-0.00095686
-0.14702
-0.00086671
-0.14847
-0.00071718
-0.14931
-0.00054109
-0.14986
-0.0003542
-0.15024
-0.000169
-0.15049
-0.15067
-0.00062461
-0.13687
-0.0009126
-0.14089
-0.0010656
-0.14446
-0.0011144
-0.14692
-0.0010236
-0.14851
-0.00085603
-0.14943
-0.00065092
-0.15003
-0.00042868
-0.15043
-0.00020459
-0.15069
-0.15085
-0.00084262
-0.13599
-0.0011936
-0.14045
-0.0013252
-0.14426
-0.0013642
-0.14682
-0.0012576
-0.14857
-0.0010572
-0.14959
-0.00080815
-0.15024
-0.00053502
-0.15067
-0.00025641
-0.15094
-0.15109
-0.0011548
-0.13479
-0.0016064
-0.13991
-0.001718
-0.14407
-0.0017417
-0.14673
-0.0016066
-0.14864
-0.0013518
-0.14979
-0.0010333
-0.15052
-0.00068471
-0.15098
-0.00033028
-0.15126
-0.15141
-0.0015255
-0.13321
-0.0021888
-0.13915
-0.0023351
-0.14385
-0.0023384
-0.14666
-0.0021378
-0.14879
-0.00178
-0.1501
-0.0013465
-0.15091
-0.00088641
-0.1514
-0.00042849
-0.15169
-0.15182
-0.0019296
-0.13122
-0.0031808
-0.13781
-0.0034557
-0.1435
-0.0033369
-0.14672
-0.002937
-0.14914
-0.0023679
-0.15063
-0.0017478
-0.15149
-0.0011336
-0.15199
-0.00054589
-0.15225
-0.15236
-0.0031006
-0.12806
-0.0055097
-0.13532
-0.005614
-0.14334
-0.0049298
-0.14735
-0.0040238
-0.15
-0.0030756
-0.15154
-0.0021887
-0.15235
-0.0013884
-0.15276
-0.00066385
-0.15295
-0.15301
-0.0088356
-0.11918
-0.010527
-0.13357
-0.0090127
-0.14481
-0.0069639
-0.14937
-0.0051909
-0.15174
-0.0037409
-0.15297
-0.002562
-0.15351
-0.0015881
-0.15372
-0.0007535
-0.15377
-0.15377
0.020092
-0.13923
0.02423
-0.13768
0.0252
-0.14576
0.024133
-0.14828
0.021465
-0.14906
0.017879
-0.14937
0.013764
-0.14939
0.0093268
-0.14928
0.0047055
-0.14915
-0.14906
0.012148
-0.15136
0.017194
-0.14271
0.018653
-0.14721
0.018155
-0.14778
0.016369
-0.14728
0.01376
-0.14676
0.010647
-0.14628
0.007235
-0.14587
0.0036553
-0.14558
-0.14541
0.0072688
-0.15862
0.011747
-0.1472
0.013068
-0.14854
0.012829
-0.14755
0.011654
-0.14612
0.0098576
-0.14498
0.0076594
-0.1441
0.005218
-0.14345
0.0026391
-0.14301
-0.14279
0.0038724
-0.1625
0.0072295
-0.15059
0.0081358
-0.14948
0.0079966
-0.14744
0.0072763
-0.14542
0.0061677
-0.1439
0.0048003
-0.14276
0.0032731
-0.14194
0.0016547
-0.14142
-0.14115
0.0011133
-0.16363
0.0031033
-0.15262
0.0035339
-0.14994
0.0034403
-0.14738
0.003109
-0.14512
0.0026221
-0.14344
0.0020325
-0.1422
0.0013803
-0.14132
0.0006932
-0.14076
-0.14047
-0.0014274
-0.16223
-0.00096298
-0.15313
-0.00099736
-0.14995
-0.0010476
-0.14737
-0.0010008
-0.14521
-0.00088357
-0.1436
-0.00071148
-0.14241
-0.00050002
-0.14157
-0.00026323
-0.14103
-0.14075
-0.0040129
-0.15824
-0.0051348
-0.15206
-0.0056641
-0.14946
-0.0056698
-0.14741
-0.0052242
-0.14569
-0.0044736
-0.14439
-0.0035128
-0.14341
-0.0024151
-0.1427
-0.0012352
-0.14225
-0.14201
-0.0067535
-0.15151
-0.009553
-0.14931
-0.010686
-0.14837
-0.010636
-0.1475
-0.0097274
-0.14664
-0.0082637
-0.14589
-0.006445
-0.14526
-0.004407
-0.14478
-0.0022419
-0.14445
-0.14427
-0.010349
-0.1412
-0.015168
-0.14454
-0.016756
-0.14682
-0.016348
-0.14794
-0.014717
-0.14831
-0.012359
-0.14828
-0.0095611
-0.14809
-0.0065012
-0.14787
-0.0032933
-0.14769
-0.14758
-0.019101
-0.12212
-0.024379
-0.1393
-0.024823
-0.14641
-0.023132
-0.14966
-0.020296
-0.15117
-0.016786
-0.15182
-0.012865
-0.15205
-0.0086958
-0.15208
-0.0043876
-0.15203
-0.15198
0.01129
-0.13344
0.011883
-0.13993
0.0103
-0.14486
0.008325
-0.14772
0.0064601
-0.14934
0.0048255
-0.15022
0.0034115
-0.15066
0.0021705
-0.15086
0.0010452
-0.15094
-0.15095
0.0055832
-0.13904
0.0074501
-0.14183
0.0072895
-0.14472
0.0063812
-0.14683
0.0052393
-0.14822
0.0040741
-0.14908
0.0029623
-0.14958
0.0019205
-0.14985
0.00093602
-0.14998
-0.15002
0.0030842
-0.14215
0.0046888
-0.14346
0.0050599
-0.14511
0.0047424
-0.14654
0.0040904
-0.14759
0.0032973
-0.14831
0.0024602
-0.14876
0.0016227
-0.14903
0.00079904
-0.14918
-0.14923
0.001837
-0.144
0.0030184
-0.14466
0.0034935
-0.14561
0.0034578
-0.14652
0.0031081
-0.14726
0.0025841
-0.1478
0.0019723
-0.14817
0.0013211
-0.1484
0.0006562
-0.14853
-0.14859
0.0011517
-0.14516
0.0019842
-0.14551
0.0024105
-0.14605
0.002487
-0.14661
0.0023111
-0.14709
0.0019714
-0.14747
0.0015337
-0.14774
0.001041
-0.14792
0.0005209
-0.14802
-0.14807
0.00074416
-0.14591
0.0013204
-0.14609
0.0016584
-0.14639
0.0017641
-0.14672
0.0016825
-0.14702
0.0014651
-0.14727
0.0011576
-0.14745
0.00079436
-0.14757
0.00039989
-0.14764
-0.14768
0.00048542
-0.1464
0.00087731
-0.1465
0.0011271
-0.14665
0.0012256
-0.14683
0.0011918
-0.147
0.0010546
-0.14714
0.00084346
-0.14725
0.00058374
-0.14732
0.00029519
-0.14736
-0.14738
0.00031101
-0.14672
0.00056843
-0.14676
0.00074129
-0.14683
0.00081844
-0.14691
0.0008069
-0.14699
0.00072235
-0.14706
0.00058297
-0.14711
0.00040597
-0.14715
0.00020591
-0.14717
-0.14718
0.00018572
-0.14691
0.0003414
-0.14692
0.00044915
-0.14695
0.00050053
-0.14697
0.00049766
-0.147
0.00044869
-0.14702
0.00036408
-0.14704
0.00025442
-0.14705
0.00012923
-0.14705
-0.14706
8.6743e-05
0.00016066
0.00021189
0.00023654
0.00023543
0.00021232
0.00017221
0.00012038
6.1834e-05
)
;

boundaryField
{
    bump
    {
        type             calculated;
        value            uniform 0;
    }
    outlet
    {
        type             calculated;
        value            nonuniform List<scalar>
10
(
0.15031
0.15013
0.14989
0.14956
0.14908
0.14834
0.14728
0.14547
0.14197
0.13868
)
;
    }
    inlet
    {
        type             calculated;
        value            nonuniform List<scalar>
10
(
-0.147
-0.147
-0.147
-0.147
-0.147
-0.147
-0.147
-0.147
-0.147
-0.147
)
;
    }
    side1
    {
        type             calculated;
        value            uniform 0;
    }
    side2
    {
        type             calculated;
        value            uniform 0;
    }
    symmetry
    {
        type             calculated;
        value            uniform 0;
    }
    top
    {
        type             calculated;
        value            uniform 0;
    }
}

// ************************************************************************* //
