/*--------------------------------*- C++ -*----------------------------------*\\
| =========                 |                                                 |
| \\      /  F ield         | OpenFOAM: The Open Source CFD Toolbox           |
|  \\    /   O peration     | Version:  v1706                                 |
|   \\  /    A nd           | Web:      www.OpenFOAM.com                      |
|    \\/     M anipulation  |                                                 |
\\*---------------------------------------------------------------------------*/
FoamFile
{
    version     2.0;
    format      ascii;
    class       volScalarField;
    location    "0.45";
    object      p;
}
// * * * * * * * * * * * * * * * * * * * * * * * * * * * * * * * * * * * * * //

dimensions      [1 -1 -2 0 0 0 0]


internalField   nonuniform List<scalar>
300
(
3.3091
0.80753
7.6131
1.5884
-2.9695
-3.6371
-4.0698
-4.4214
-4.6182
-4.7976
-11.2368
-9.0358
7.4823
4.4346
-0.5918
-0.93232
-0.95955
-1.1445
-1.3085
-1.5641
-29.5249
-22.4002
5.5377
9.497
5.3264
4.7266
4.3101
3.5805
2.8669
2.2149
-44.2842
-33.6395
6.2335
19.1792
15.841
13.659
11.5073
9.141
7.1578
5.7745
-39.9502
-31.5089
16.1543
36.5587
31.8617
25.4976
19.5722
14.2631
10.265
7.7989
10.7552
2.1231
43.1925
63.2847
52.1998
37.922
26.037
16.7223
10.2086
6.4952
145.6849
88.5235
91.6404
95.3741
70.937
45.5847
26.711
13.3509
4.6144
-0.094591
393.6208
234.3303
150.4687
117.5451
75.7766
40.2044
16.3171
0.89188
-8.5847
-13.5213
697.5983
388.0354
179.0045
102.5144
51.1572
13.7581
-9.0071
-22.3803
-30.1184
-34.0871
744.022
396.4466
114.8973
25.7303
-11.3282
-35.4242
-48.4859
-55.0182
-58.4177
-60.2518
26.8315
116.2694
-60.4164
-103.8276
-100.471
-98.4095
-95.5038
-92.1378
-89.7279
-88.8229
-479.3882
-152.2884
-213.6925
-212.7591
-179.5992
-156.3217
-139.2383
-126.9456
-119.2711
-115.7601
-854.8933
-405.6027
-352.0355
-306.0882
-247.0146
-205.7103
-176.2924
-156.1722
-143.8658
-138.026
-1110.4972
-615.2205
-461.0341
-375.5415
-295.3314
-240.2159
-201.7051
-175.9115
-160.2531
-152.7204
-1236.9768
-760.1078
-529.7857
-413.561
-319.1095
-255.4791
-211.9983
-183.371
-166.1257
-157.7872
-1201.9107
-807.5428
-540.3555
-409.4371
-312.4814
-248.2698
-205.2775
-177.3335
-160.6002
-152.468
-948.1812
-710.609
-468.3293
-352.0168
-271.0233
-217.4948
-181.7573
-158.4757
-144.4428
-137.4973
-429.3105
-431.0183
-299.5067
-239.5441
-196.7041
-166.1589
-144.3439
-129.3522
-119.896
-114.9324
284.7169
-13.5343
-67.3471
-95.4633
-103.8096
-102.9259
-98.6342
-93.9275
-90.1406
-87.6439
805.6356
323.8983
123.3388
28.6427
-18.3116
-41.4692
-52.3876
-57.1097
-58.7546
-58.7411
501.7015
318.4518
176.8948
90.227
37.6417
5.9889
-12.6794
-23.2943
-28.7994
-30.8031
352.3494
272.4728
184.8392
117.5295
70.3451
38.5138
17.6891
4.6735
-2.7034
-5.7954
265.8319
226.3839
173.8613
126.0777
88.168
60.0665
40.2249
26.9997
19.1034
15.6066
212.7032
191.249
159.0256
126.0038
97.0916
73.9208
56.5189
44.3182
36.7465
33.2759
178.7563
166.1363
145.6307
122.7683
101.1808
82.7376
68.1518
57.5073
50.6836
47.4619
156.6058
148.6779
135.0856
118.983
102.8776
88.3887
76.4297
67.4067
61.4594
58.5795
142.1374
136.8393
127.4127
115.731
103.5164
92.076
82.2923
74.6923
69.5663
67.0285
132.9473
129.156
122.2276
113.3498
103.7496
94.4731
86.3128
79.8229
75.3559
73.0974
127.6847
124.7032
119.1578
111.893
103.8476
95.8959
88.762
82.9935
78.9637
76.8955
125.588
122.8991
117.9033
111.2904
103.8799
96.4742
89.7655
84.2969
80.4549
78.4829
)
;

boundaryField
{
    bump
    {
        type             zeroGradient;
    }
    outlet
    {
        type             fixedValue;
        value            uniform 0;
    }
    inlet
    {
        type             zeroGradient;
    }
    side1
    {
        type             empty;
    }
    side2
    {
        type             empty;
    }
    symmetry
    {
        type             symmetry;
    }
    top
    {
        type             symmetry;
    }
}

// ************************************************************************* //
