/*--------------------------------*- C++ -*----------------------------------*\\
| =========                 |                                                 |
| \\      /  F ield         | OpenFOAM: The Open Source CFD Toolbox           |
|  \\    /   O peration     | Version:  v1706                                 |
|   \\  /    A nd           | Web:      www.OpenFOAM.com                      |
|    \\/     M anipulation  |                                                 |
\\*---------------------------------------------------------------------------*/
FoamFile
{
    version     2.0;
    format      ascii;
    class       volVectorField;
    location    "0.45";
    object      U;
}
// * * * * * * * * * * * * * * * * * * * * * * * * * * * * * * * * * * * * * //

dimensions      [0 1 -1 0 0 0 0]


internalField   nonuniform List<vector>
300
(
(56.6023 -0.45254 0.0081902)
(57.9462 -0.0054292 0.0058498)
(59.3768 -0.59404 0.0032338)
(60.1152 -0.49219 0.0019887)
(60.5481 -0.26766 0.001235)
(60.8484 -0.22997 0.00076413)
(61.0462 -0.1715 0.00046782)
(61.1809 -0.1123 0.00036128)
(61.2789 -0.056565 0.00158)
(61.3516 -0.019985 0.0015905)
(56.5374 -0.45621 0.009227)
(57.9283 -0.0075387 0.0065926)
(59.2831 -0.56487 0.0037888)
(60.1765 -0.52023 0.002375)
(60.689 -0.2884 0.0015136)
(60.9838 -0.2518 0.00097196)
(61.1776 -0.1937 0.0006269)
(61.3076 -0.12848 0.00048762)
(61.3975 -0.065816 0.0016652)
(61.462 -0.022877 0.0016668)
(56.5223 -0.45538 0.010153)
(57.927 0.0080555 0.0072223)
(59.2541 -0.52788 0.004216)
(60.1712 -0.58054 0.0026255)
(60.7176 -0.32892 0.0016521)
(61.0204 -0.27965 0.0010369)
(61.2161 -0.22129 0.00064119)
(61.346 -0.1494 0.0004678)
(61.433 -0.078506 0.0016013)
(61.4924 -0.027215 0.001594)
(56.5149 -0.45852 0.011162)
(57.9375 0.033599 0.0079386)
(59.2289 -0.46765 0.0047239)
(60.1411 -0.65858 0.0029529)
(60.721 -0.39635 0.0018652)
(61.043 -0.32438 0.0011749)
(61.249 -0.26177 0.00072791)
(61.3847 -0.18041 0.00051988)
(61.4726 -0.097706 0.0016075)
(61.5283 -0.033816 0.0015916)
(56.4424 -0.48359 0.012151)
(57.9122 0.049049 0.0086448)
(59.1788 -0.3824 0.0052232)
(60.0752 -0.75094 0.0032729)
(60.6966 -0.5006 0.0020716)
(61.0534 -0.39903 0.0013074)
(61.2818 -0.32549 0.00081006)
(61.4311 -0.22867 0.0005681)
(61.5244 -0.1279 0.0016089)
(61.5785 -0.044354 0.0015858)
(56.1625 -0.56476 0.013086)
(57.7612 0.0071803 0.0093169)
(59.0615 -0.29085 0.0056971)
(59.9591 -0.86715 0.0035739)
(60.6457 -0.66015 0.0022633)
(61.0616 -0.52178 0.0014283)
(61.3276 -0.42471 0.00088366)
(61.4989 -0.30168 0.00060971)
(61.6018 -0.17321 0.001604)
(61.6556 -0.06006 0.001576)
(55.3977 -0.76895 0.013934)
(57.3176 -0.20217 0.0099306)
(58.8207 -0.26022 0.0061283)
(59.7941 -1.0442 0.003844)
(60.5917 -0.90746 0.002432)
(61.0961 -0.71596 0.0015321)
(61.4127 -0.57232 0.0009448)
(61.6096 -0.4056 0.00064197)
(61.722 -0.2357 0.0015913)
(61.7749 -0.081243 0.0015613)
(53.6683 -1.2338 0.014662)
(56.3516 -0.83342 0.010465)
(58.443 -0.4658 0.0065024)
(59.649 -1.3664 0.0040732)
(60.6087 -1.2858 0.0025707)
(61.216 -1.0009 0.0016137)
(61.5788 -0.77226 0.00099007)
(61.7905 -0.53807 0.00066238)
(61.9031 -0.31249 0.0015696)
(61.9507 -0.10677 0.0015412)
(50.6836 -2.2643 0.015246)
(54.8731 -2.4459 0.01091)
(58.1318 -1.2549 0.0068128)
(59.7288 -1.9529 0.0042554)
(60.8345 -1.8163 0.0026741)
(61.5007 -1.3663 0.0016693)
(61.8683 -1.0046 0.0010169)
(62.0634 -0.68057 0.00066912)
(62.1562 -0.39157 0.0015379)
(62.1891 -0.13252 0.0015153)
(48.6159 -4.3189 0.015674)
(53.9914 -5.83 0.011272)
(58.5115 -2.9831 0.0070533)
(60.3783 -2.8179 0.0043792)
(61.4323 -2.4157 0.0027312)
(62.0167 -1.7357 0.0016902)
(62.3044 -1.2151 0.0010192)
(62.4325 -0.79838 0.00065844)
(62.4775 -0.45361 0.0014942)
(62.4833 -0.15222 0.0014829)
(54.0767 -6.7934 0.015916)
(55.9434 -10.257 0.011492)
(60.1402 -5.2193 0.0071628)
(61.6668 -3.592 0.0043973)
(62.3656 -2.8142 0.0027046)
(62.7108 -1.9533 0.0016486)
(62.8364 -1.3178 0.00097947)
(62.8565 -0.84432 0.00062006)
(62.836 -0.4748 0.0014328)
(62.811 -0.15828 0.0014434)
(62.7557 -5.9749 0.015302)
(60.2289 -10.9427 0.010354)
(62.9195 -5.427 0.006073)
(63.5334 -3.4213 0.0036315)
(63.5855 -2.624 0.0021994)
(63.5325 -1.7692 0.0013266)
(63.4204 -1.1714 0.00078506)
(63.297 -0.73996 0.00051818)
(63.1956 -0.41473 0.0013974)
(63.1353 -0.13571 0.0013931)
(68.6279 -3.7367 0.013812)
(63.9542 -9.2441 0.0087571)
(65.1977 -4.7772 0.0048179)
(65.0485 -2.7173 0.0028177)
(64.6016 -2.0798 0.0016818)
(64.2262 -1.3659 0.0010029)
(63.9123 -0.88835 0.00059093)
(63.6663 -0.55153 0.00041535)
(63.4957 -0.30798 0.0013411)
(63.4043 -0.098338 0.0013291)
(72.434 -0.89416 0.011902)
(66.9669 -6.007 0.0069718)
(66.9051 -3.4579 0.0036377)
(66.1605 -1.6015 0.0021062)
(65.3496 -1.249 0.00125)
(64.7327 -0.77647 0.00074042)
(64.2631 -0.48423 0.00043478)
(63.9217 -0.28864 0.000333)
(63.6974 -0.16041 0.001274)
(63.5815 -0.04883 0.001258)
(74.427 2.1127 0.010559)
(68.9786 -1.8859 0.0056764)
(67.9093 -1.605 0.0029124)
(66.7687 -0.21851 0.0016992)
(65.7413 -0.22242 0.0010103)
(64.9813 -0.061077 0.00060032)
(64.42 0.0033691 0.00035551)
(64.0231 0.025722 0.00029525)
(63.7678 0.015321 0.0012104)
(63.6376 0.0085367 0.0011864)
(74.6129 4.9543 0.0099387)
(69.7835 2.531 0.0051154)
(68.128 0.64944 0.0026495)
(66.8088 1.2846 0.0015817)
(65.7252 0.89494 0.00095146)
(64.9317 0.70624 0.00057281)
(64.3533 0.52322 0.00034436)
(63.9484 0.3585 0.0002954)
(63.6897 0.20074 0.0011485)
(63.5577 0.068261 0.0011154)
(72.8015 7.3291 0.0090002)
(69.1099 6.6115 0.0046903)
(67.4577 3.0917 0.0023967)
(66.234 2.7539 0.0014336)
(65.2791 1.9726 0.00086973)
(64.5757 1.4367 0.00052812)
(64.0614 1.0143 0.00032077)
(63.6993 0.67119 0.00028307)
(63.4662 0.37485 0.0010689)
(63.3459 0.12444 0.0010394)
(68.5427 8.8253 0.0064712)
(66.681 9.7153 0.0035604)
(65.7714 5.2921 0.0017304)
(65.03 4.001 0.0010188)
(64.424 2.8517 0.00062972)
(63.9449 2.0298 0.00038802)
(63.5744 1.4115 0.00023787)
(63.3018 0.92457 0.00022497)
(63.1206 0.51669 0.00097005)
(63.024 0.17049 0.00095646)
(61.5201 8.8725 0.0030288)
(62.527 10.9191 0.0019151)
(63.1923 6.609 0.0008676)
(63.3505 4.7034 0.00051929)
(63.2869 3.3515 0.00034842)
(63.1337 2.3829 0.000227)
(62.9612 1.6579 0.00014217)
(62.808 1.0871 0.00015014)
(62.6947 0.61036 0.00086847)
(62.6291 0.20126 0.00087327)
(53.7036 6.8017 0.00099246)
(58.1544 9.1606 0.00087635)
(60.5958 6.3446 0.00030649)
(61.6812 4.5934 0.00017679)
(62.139 3.3656 0.00013248)
(62.2982 2.4462 9.3402e-05)
(62.318 1.729 6.066e-05)
(62.2827 1.1459 7.4334e-05)
(62.2374 0.64926 0.00077331)
(62.2035 0.21411 0.00079393)
(52.4139 2.6379 0.00068632)
(56.9025 4.922 0.00071999)
(59.3328 4.6976 0.0001419)
(60.6083 3.8491 3.7495e-05)
(61.2691 3.0135 2.2081e-05)
(61.5937 2.2826 1.5806e-05)
(61.7359 1.6572 1.0427e-05)
(61.7848 1.1174 6.6786e-06)
(61.7918 0.64024 0.00068966)
(61.7843 0.21008 0.00072234)
(55.8103 1.2512 0.00065092)
(57.582 2.7759 0.0006476)
(59.0805 3.1069 7.0119e-05)
(60.07 2.8389 6.511e-06)
(60.6818 2.3854 1.548e-06)
(61.04 1.8967 1.213e-06)
(61.2363 1.4249 1.1513e-06)
(61.3348 0.98381 1.1107e-06)
(61.3778 0.57295 0.00062774)
(61.3904 0.18934 0.00065396)
(57.4876 0.67256 0.00058163)
(58.2701 1.6482 0.00058005)
(59.1541 2.0484 4.069e-05)
(59.8538 2.0375 3.0539e-06)
(60.3439 1.8195 9.7729e-07)
(60.6632 1.5112 8.4758e-07)
(60.8583 1.1714 8.0576e-07)
(60.9693 0.82675 7.7534e-07)
(61.0258 0.4887 0.00056532)
(61.0475 0.1625 0.0005835)
(58.4543 0.39323 0.00051073)
(58.834 1.0237 0.00050996)
(59.3414 1.3644 2.3097e-05)
(59.8022 1.4444 1.4602e-06)
(60.1597 1.3547 6.1537e-07)
(60.4126 1.1676 5.5391e-07)
(60.5791 0.93017 5.2165e-07)
(60.6812 0.66945 4.9837e-07)
(60.737 0.40105 0.00049999)
(60.7603 0.13408 0.00051191)
(59.0472 0.24338 0.00043882)
(59.2424 0.65774 0.00043844)
(59.5324 0.91832 1.2717e-05)
(59.8224 1.0169 7.1075e-07)
(60.0659 0.99076 3.7126e-07)
(60.2497 0.88017 3.3196e-07)
(60.3778 0.71747 3.0491e-07)
(60.4602 0.52509 2.862e-07)
(60.5075 0.31821 0.0004322)
(60.5282 0.10687 0.00043954)
(59.4256 0.15595 0.00036627)
(59.5283 0.43132 0.00036609)
(59.6918 0.6211 6.6748e-06)
(59.8665 0.71024 3.4998e-07)
(60.022 0.71213 2.0961e-07)
(60.1454 0.6479 1.7769e-07)
(60.235 0.53813 1.5364e-07)
(60.2949 0.39931 1.3757e-07)
(60.3303 0.24428 0.00036249)
(60.3463 0.082345 0.00036667)
(59.6723 0.10123 0.00029334)
(59.7253 0.28397 0.00029326)
(59.8136 0.41731 3.2525e-06)
(59.9123 0.48814 1.7723e-07)
(60.0038 0.49989 1.1082e-07)
(60.0791 0.46315 8.1605e-08)
(60.1356 0.39035 5.9267e-08)
(60.1743 0.29284 4.4511e-08)
(60.1976 0.18045 0.00029137)
(60.2084 0.060973 0.00029351)
(59.8329 0.064774 0.00022019)
(59.858 0.18308 0.00022015)
(59.9012 0.27246 1.4164e-06)
(59.9508 0.32371 9.9745e-08)
(59.9981 0.33651 5.8322e-08)
(60.0379 0.31592 3.0226e-08)
(60.0684 0.26915 8.7822e-09)
(60.0896 0.20358 -5.4782e-09)
(60.1024 0.12605 0.00021926)
(60.1085 0.04261 0.00022019)
(59.9327 0.038739 0.00014691)
(59.9425 0.1097 0.00014689)
(59.9594 0.16432 5.2704e-07)
(59.979 0.19718 7.0671e-08)
(59.998 0.20697 3.6426e-08)
(60.0142 0.19598 8.7699e-09)
(60.0267 0.16815 -1.2324e-08)
(60.0354 0.12786 -2.6544e-08)
(60.0406 0.079329 0.0001465)
(60.0427 0.026771 0.00014681)
(59.9848 0.017948 4.7605e-08)
(59.9871 0.051207 3.9349e-08)
(59.9909 0.077122 -7.3315e-05)
(59.9952 0.092963 -7.3415e-05)
(59.9994 0.097983 -7.3435e-05)
(60.003 0.093097 -7.3453e-05)
(60.0058 0.080073 -7.3465e-05)
(60.0077 0.060997 -7.3474e-05)
(60.0088 0.038059 -9.4664e-08)
(60.009 0.012919 -3.9141e-08)
)
;

boundaryField
{
    bump
    {
        type             noSlip;
    }
    outlet
    {
        type             zeroGradient;
    }
    inlet
    {
        type             fixedValue;
        value            uniform (60 0 0);
    }
    side1
    {
        type             empty;
    }
    side2
    {
        type             empty;
    }
    symmetry
    {
        type             symmetry;
    }
    top
    {
        type             symmetry;
    }
}

// ************************************************************************* //
