/*--------------------------------*- C++ -*----------------------------------*\\
| =========                 |                                                 |
| \\      /  F ield         | OpenFOAM: The Open Source CFD Toolbox           |
|  \\    /   O peration     | Version:  v1706                                 |
|   \\  /    A nd           | Web:      www.OpenFOAM.com                      |
|    \\/     M anipulation  |                                                 |
\\*---------------------------------------------------------------------------*/
FoamFile
{
    version     2.0;
    format      ascii;
    class       surfaceScalarField;
    location    "1.05";
    object      mdot_f;
}
// * * * * * * * * * * * * * * * * * * * * * * * * * * * * * * * * * * * * * //

dimensions      [1 0 -1 0 0 0 0]


internalField   nonuniform List<scalar>
560
(
-0.0002864
-0.14036
-0.00041615
-0.14274
-0.00062261
-0.14574
-0.00070283
-0.14765
-0.00066663
-0.14855
-0.00061056
-0.14889
-0.00049037
-0.14907
-0.00035102
-0.14909
-0.00018417
-0.14905
-0.14901
-0.00031639
-0.14004
-0.00051153
-0.14255
-0.0006873
-0.14556
-0.00077736
-0.14756
-0.00075988
-0.14856
-0.00069205
-0.14896
-0.00056459
-0.1492
-0.00039866
-0.14925
-0.0002071
-0.14924
-0.14922
-0.0004014
-0.13964
-0.00065564
-0.14229
-0.00084616
-0.14537
-0.00094588
-0.14746
-0.00092269
-0.14859
-0.00083256
-0.14905
-0.00067864
-0.14935
-0.00047604
-0.14946
-0.00024581
-0.14947
-0.14946
-0.00055572
-0.13908
-0.00089263
-0.14195
-0.0011136
-0.14515
-0.0012201
-0.14735
-0.0011706
-0.14864
-0.0010372
-0.14919
-0.00083767
-0.14955
-0.00058326
-0.14971
-0.00029911
-0.14976
-0.14976
-0.00082358
-0.13826
-0.0012739
-0.1415
-0.0015124
-0.14491
-0.0016077
-0.14726
-0.0015105
-0.14873
-0.0013108
-0.14938
-0.0010451
-0.14982
-0.00072225
-0.15003
-0.00036836
-0.15011
-0.15013
-0.001238
-0.13702
-0.0018198
-0.14092
-0.0020407
-0.14469
-0.0021061
-0.14719
-0.0019489
-0.14889
-0.0016618
-0.14967
-0.0013069
-0.15017
-0.00089614
-0.15044
-0.00045476
-0.15055
-0.15058
-0.0017416
-0.13528
-0.002504
-0.14015
-0.0027156
-0.14447
-0.002754
-0.14715
-0.0025245
-0.14911
-0.0021175
-0.15007
-0.0016368
-0.15065
-0.0011089
-0.15097
-0.00055832
-0.1511
-0.15114
-0.0022461
-0.13303
-0.0035127
-0.13888
-0.0037952
-0.14419
-0.0037327
-0.14721
-0.0033291
-0.14952
-0.0027117
-0.15069
-0.0020394
-0.15132
-0.0013552
-0.15165
-0.0006746
-0.15178
-0.15181
-0.0035438
-0.12948
-0.0059032
-0.13652
-0.0059361
-0.14415
-0.0053003
-0.14785
-0.0044099
-0.1504
-0.0034159
-0.15168
-0.0024724
-0.15227
-0.0016018
-0.15252
-0.00078608
-0.1526
-0.1526
-0.0095211
-0.11996
-0.011133
-0.1349
-0.0093891
-0.14589
-0.0072987
-0.14993
-0.0055485
-0.15215
-0.0040625
-0.15317
-0.0028259
-0.1535
-0.0017833
-0.15356
-0.00086222
-0.15352
-0.15346
0.02061
-0.14057
0.024623
-0.13892
0.025436
-0.1467
0.024136
-0.14863
0.02132
-0.14934
0.0177
-0.14954
0.013592
-0.14939
0.0091885
-0.14916
0.0046265
-0.14895
-0.14883
0.012289
-0.15286
0.017266
-0.14389
0.018719
-0.14816
0.018129
-0.14804
0.016227
-0.14743
0.013574
-0.14689
0.010472
-0.14629
0.0071026
-0.14579
0.0035843
-0.14543
-0.14525
0.0072076
-0.16006
0.011591
-0.14827
0.012917
-0.14948
0.012702
-0.14782
0.011484
-0.14621
0.0096629
-0.14507
0.0074833
-0.14411
0.0050885
-0.14339
0.0025725
-0.14292
-0.14268
0.0037036
-0.16377
0.0069239
-0.15149
0.0077899
-0.15035
0.007735
-0.14777
0.0070444
-0.14552
0.0059479
-0.14397
0.0046156
-0.14277
0.0031427
-0.14192
0.0015903
-0.14136
-0.14109
0.00090847
-0.16467
0.0027443
-0.15333
0.0030713
-0.15067
0.0030607
-0.14776
0.0028079
-0.14527
0.0023694
-0.14353
0.0018347
-0.14224
0.0012464
-0.14133
0.00062982
-0.14075
-0.14046
-0.0015965
-0.16308
-0.0012669
-0.15366
-0.001451
-0.15049
-0.0014654
-0.14774
-0.0013337
-0.1454
-0.0011506
-0.14371
-0.0009126
-0.14248
-0.0006324
-0.14161
-0.00032342
-0.14105
-0.14078
-0.0041308
-0.15895
-0.0053178
-0.15247
-0.0059763
-0.14983
-0.0060042
-0.14771
-0.005513
-0.14589
-0.0047115
-0.14451
-0.0036938
-0.14349
-0.0025338
-0.14277
-0.0012875
-0.1423
-0.14207
-0.0068634
-0.15208
-0.0096523
-0.14968
-0.010851
-0.14863
-0.010854
-0.14771
-0.0099418
-0.1468
-0.0084509
-0.146
-0.0065918
-0.14535
-0.0045036
-0.14485
-0.0022825
-0.14452
-0.14435
-0.010511
-0.14157
-0.015301
-0.14489
-0.016883
-0.14705
-0.016503
-0.14809
-0.014875
-0.14843
-0.012499
-0.14838
-0.0096719
-0.14818
-0.0065733
-0.14795
-0.003321
-0.14777
-0.14767
-0.019326
-0.12224
-0.024626
-0.13959
-0.025014
-0.14666
-0.023283
-0.14982
-0.020424
-0.15129
-0.01689
-0.15191
-0.012943
-0.15213
-0.0087443
-0.15215
-0.0044029
-0.15211
-0.15207
0.011313
-0.13356
0.011825
-0.1401
0.010191
-0.14502
0.0082069
-0.14784
0.0063491
-0.14943
0.0047324
-0.1503
0.0033432
-0.15074
0.0021301
-0.15094
0.0010342
-0.15102
-0.15104
0.0055786
-0.13914
0.0074124
-0.14193
0.0072162
-0.14483
0.0062996
-0.14692
0.005162
-0.14829
0.0040083
-0.14914
0.0029141
-0.14964
0.0018928
-0.14992
0.00092987
-0.15005
-0.15011
0.0030719
-0.14221
0.004662
-0.14352
0.0050134
-0.14518
0.0046891
-0.1466
0.00404
-0.14764
0.0032547
-0.14836
0.0024295
-0.14882
0.0016065
-0.14909
0.00079761
-0.14925
-0.14931
0.0018266
-0.14403
0.0030009
-0.1447
0.0034663
-0.14565
0.0034265
-0.14656
0.0030788
-0.1473
0.0025603
-0.14784
0.001956
-0.14821
0.0013141
-0.14845
0.00065858
-0.14859
-0.14865
0.0011451
-0.14518
0.0019749
-0.14553
0.0023974
-0.14607
0.0024723
-0.14663
0.0022981
-0.14712
0.0019622
-0.1475
0.0015289
-0.14778
0.0010412
-0.14797
0.00052602
-0.14808
-0.14813
0.00074138
-0.14592
0.0013178
-0.14611
0.0016554
-0.14641
0.0017616
-0.14674
0.0016814
-0.14704
0.0014664
-0.14729
0.0011612
-0.14748
0.00079983
-0.1476
0.00040678
-0.14768
-0.14772
0.00048547
-0.14641
0.00087961
-0.1465
0.0011309
-0.14666
0.0012311
-0.14684
0.0011988
-0.14701
0.0010629
-0.14715
0.00085254
-0.14727
0.00059256
-0.14734
0.00030299
-0.14739
-0.14742
0.0003129
-0.14672
0.00057382
-0.14676
0.00074924
-0.14683
0.00082868
-0.14692
0.00081873
-0.147
0.00073484
-0.14707
0.00059506
-0.14713
0.00041644
-0.14717
0.00021379
-0.14719
-0.1472
0.00018854
-0.14691
0.00034824
-0.14692
0.00045909
-0.14695
0.00051292
-0.14697
0.00051155
-0.147
0.00046285
-0.14702
0.00037721
-0.14704
0.00026518
-0.14705
0.00013651
-0.14706
-0.14707
9.0442e-05
0.0001677
0.000222
0.00024902
0.00024927
0.00022623
0.00018481
0.00013011
6.7015e-05
)
;

boundaryField
{
    bump
    {
        type             calculated;
        value            uniform 0;
    }
    outlet
    {
        type             calculated;
        value            nonuniform List<scalar>
10
(
0.14885
0.14891
0.14898
0.14899
0.14889
0.14857
0.14778
0.14596
0.14287
0.14063
)
;
    }
    inlet
    {
        type             calculated;
        value            nonuniform List<scalar>
10
(
-0.147
-0.147
-0.147
-0.147
-0.147
-0.147
-0.147
-0.147
-0.147
-0.147
)
;
    }
    side1
    {
        type             calculated;
        value            uniform 0;
    }
    side2
    {
        type             calculated;
        value            uniform 0;
    }
    symmetry
    {
        type             calculated;
        value            uniform 0;
    }
    top
    {
        type             calculated;
        value            uniform 0;
    }
}

// ************************************************************************* //
