/*--------------------------------*- C++ -*----------------------------------*\\
| =========                 |                                                 |
| \\      /  F ield         | OpenFOAM: The Open Source CFD Toolbox           |
|  \\    /   O peration     | Version:  v1706                                 |
|   \\  /    A nd           | Web:      www.OpenFOAM.com                      |
|    \\/     M anipulation  |                                                 |
\\*---------------------------------------------------------------------------*/
FoamFile
{
    version     2.0;
    format      ascii;
    class       volScalarField;
    location    "1.05";
    object      p;
}
// * * * * * * * * * * * * * * * * * * * * * * * * * * * * * * * * * * * * * //

dimensions      [1 -1 -2 0 0 0 0]


internalField   nonuniform List<scalar>
300
(
1.7835
-1.0069
3.9586
2.7935
0.52101
-0.57405
-3.2446
-4.0945
-4.7984
-5.3031
9.7336
3.8759
9.1476
6.5221
1.5685
-1.4142
-6.443
-8.8831
-10.4668
-11.4755
25.5112
14.1284
16.4352
10.874
2.469
-2.6471
-10.0055
-14.3449
-16.9388
-18.4624
47.9454
28.0915
24.7075
14.6874
1.8591
-5.4417
-14.8562
-21.1632
-24.8372
-26.8633
70.3331
40.8184
31.782
17.4681
-0.59788
-10.3831
-21.6327
-29.9069
-34.7315
-37.2711
90.7763
51.6538
38.868
21.2923
-3.7098
-17.5377
-30.9467
-41.2422
-47.2674
-50.3122
136.6541
77.6866
53.5746
29.1669
-6.9591
-27.9028
-44.1715
-56.3077
-63.2927
-66.6715
275.0835
150.4997
78.9865
35.3162
-15.9128
-45.5878
-64.0589
-76.6865
-83.6593
-86.8917
515.451
254.2849
84.9624
14.9505
-44.3268
-77.1587
-93.6455
-103.5816
-108.6622
-110.9181
551.1044
237.8964
3.8571
-62.6107
-104.0385
-125.9404
-133.2682
-136.3649
-137.3446
-137.7058
-183.6615
-61.8213
-186.8558
-191.9391
-188.0586
-185.7844
-178.0873
-171.5212
-167.0271
-164.9538
-680.3209
-333.2562
-353.0231
-305.1672
-263.8223
-239.7569
-218.6368
-203.4223
-193.8106
-189.3044
-1013.3443
-562.9187
-490.0803
-400.832
-327.8897
-284.1789
-251.2275
-228.5566
-214.5128
-207.8473
-1198.0284
-720.1912
-575.7454
-463.5647
-369.9637
-312.0866
-270.814
-242.9896
-225.9085
-217.7546
-1248.0262
-798.43
-603.4077
-484.385
-383.2419
-318.5844
-273.7679
-243.9211
-225.7277
-217.0437
-1169.2261
-796.1595
-572.964
-458.677
-363.5616
-300.9989
-258.4211
-230.3008
-213.2531
-205.1215
-932.9485
-694.253
-479.5273
-383.9809
-309.7095
-259.7021
-225.7899
-203.3224
-189.6537
-183.0701
-467.3922
-446.3554
-312.272
-262.8642
-226.1661
-199.3428
-179.9251
-166.3627
-157.7995
-153.4932
228.9031
-51.7644
-89.1539
-116.8628
-128.109
-129.7957
-127.5334
-124.2884
-121.5602
-119.8457
781.6455
293.6225
99.0226
7.3902
-39.8746
-64.1775
-76.3649
-82.217
-84.8025
-85.5351
484.1692
297.1565
156.6728
71.7304
19.1875
-13.1852
-32.762
-44.2717
-50.5858
-53.2358
337.263
256.1669
168.3899
101.6852
54.5338
22.2257
0.75444
-12.9506
-20.9982
-24.6192
252.8342
213.0038
160.2959
112.6031
74.6186
46.1639
25.8287
12.0686
3.6227
-0.31859
201.3634
179.7894
147.4511
114.3457
85.2967
61.8402
44.044
31.4268
23.4132
19.5769
168.5789
155.905
135.3238
112.3396
90.5879
71.9059
57.0098
46.0311
38.8619
35.3622
147.109
139.1288
125.4734
109.2507
92.9814
78.2949
66.094
56.8061
50.5993
47.5214
132.8997
127.5448
118.0545
106.2689
93.9163
82.3141
72.3479
64.5567
59.2484
56.5813
123.6799
119.8325
112.8481
103.8931
94.1901
84.7898
76.4975
69.8749
65.2918
62.9646
118.2886
115.2577
109.6695
102.3471
94.2267
86.185
78.9539
73.0893
68.985
66.8841
116.1177
113.4039
108.3679
101.7002
94.2227
86.7394
79.9489
74.402
70.4987
68.4903
)
;

boundaryField
{
    bump
    {
        type             zeroGradient;
    }
    outlet
    {
        type             fixedValue;
        value            uniform 0;
    }
    inlet
    {
        type             zeroGradient;
    }
    side1
    {
        type             empty;
    }
    side2
    {
        type             empty;
    }
    symmetry
    {
        type             symmetry;
    }
    top
    {
        type             symmetry;
    }
}

// ************************************************************************* //
