/*--------------------------------*- C++ -*----------------------------------*\\
| =========                 |                                                 |
| \\      /  F ield         | OpenFOAM: The Open Source CFD Toolbox           |
|  \\    /   O peration     | Version:  v1706                                 |
|   \\  /    A nd           | Web:      www.OpenFOAM.com                      |
|    \\/     M anipulation  |                                                 |
\\*---------------------------------------------------------------------------*/
FoamFile
{
    version     2.0;
    format      ascii;
    class       volVectorField;
    location    "1.05";
    object      U;
}
// * * * * * * * * * * * * * * * * * * * * * * * * * * * * * * * * * * * * * //

dimensions      [0 1 -1 0 0 0 0]


internalField   nonuniform List<vector>
300
(
(57.3987 -0.23964 0.013617)
(58.3124 -0.090714 0.0093456)
(59.5751 -0.19611 0.0052647)
(60.3191 -0.40027 0.0032654)
(60.6426 -0.22773 0.0020249)
(60.7713 -0.31135 0.0012303)
(60.812 -0.21528 0.00073651)
(60.8062 -0.17809 0.00058138)
(60.7801 -0.11562 0.002248)
(60.7552 -0.039215 0.0023343)
(57.3137 -0.27315 0.013584)
(58.2894 -0.10556 0.0093257)
(59.4905 -0.19902 0.0053316)
(60.2737 -0.44171 0.0033407)
(60.6527 -0.25916 0.0021017)
(60.8024 -0.34713 0.001307)
(60.8869 -0.25009 0.0008121)
(60.8977 -0.19848 0.00065338)
(60.8864 -0.1292 0.002253)
(60.8716 -0.044172 0.0023392)
(57.1478 -0.33137 0.013414)
(58.1829 -0.14801 0.0091697)
(59.4086 -0.22129 0.0052573)
(60.2297 -0.52045 0.0032721)
(60.6545 -0.32297 0.0020333)
(60.8284 -0.40782 0.0012375)
(60.9395 -0.3077 0.00074122)
(60.9699 -0.23373 0.00057826)
(60.9698 -0.15174 0.0021106)
(60.9613 -0.052505 0.0021967)
(56.9228 -0.42525 0.013328)
(58.0428 -0.24272 0.0090981)
(59.3184 -0.28042 0.005263)
(60.1872 -0.64491 0.0032805)
(60.6673 -0.42551 0.0020399)
(60.8698 -0.4956 0.0012421)
(61.007 -0.38965 0.00074375)
(61.0598 -0.2858 0.00057558)
(61.072 -0.18314 0.0020408)
(61.0696 -0.06374 0.0021269)
(56.6684 -0.5705 0.013253)
(57.8967 -0.41631 0.0090384)
(59.233 -0.39197 0.0052755)
(60.1519 -0.8251 0.0032923)
(60.6976 -0.5731 0.002048)
(60.9334 -0.61141 0.0012471)
(61.0964 -0.49613 0.00074608)
(61.1728 -0.35596 0.00057157)
(61.1984 -0.22415 0.0019702)
(61.2026 -0.078109 0.0020564)
(56.4062 -0.77747 0.013193)
(57.7598 -0.6785 0.0089929)
(59.1509 -0.55169 0.0052956)
(60.1124 -1.0627 0.0033079)
(60.7398 -0.77324 0.0020577)
(61.0227 -0.75818 0.0012525)
(61.2144 -0.62743 0.00074802)
(61.3164 -0.44523 0.00056587)
(61.3567 -0.27549 0.0018989)
(61.3673 -0.09571 0.0019854)
(55.936 -1.056 0.013149)
(57.5074 -1.0334 0.0089644)
(59.0106 -0.74736 0.0053243)
(60.0376 -1.3632 0.0033277)
(60.7859 -1.0466 0.0020689)
(61.1453 -0.9489 0.0012581)
(61.3738 -0.78794 0.00074948)
(61.502 -0.5554 0.0005582)
(61.5561 -0.33736 0.0018269)
(61.5722 -0.11631 0.0019139)
(54.5769 -1.4898 0.013124)
(56.7998 -1.6234 0.0089552)
(58.7391 -1.0627 0.0053628)
(59.9466 -1.7801 0.0033524)
(60.8716 -1.439 0.0020822)
(61.337 -1.2069 0.0012641)
(61.602 -0.98134 0.00075045)
(61.7467 -0.68423 0.00054832)
(61.807 -0.40754 0.0017541)
(61.8246 -0.13898 0.0018419)
(51.7254 -2.4213 0.013118)
(55.5042 -3.0416 0.008974)
(58.5125 -1.8313 0.0054163)
(60.0389 -2.4263 0.0033846)
(61.1235 -1.9876 0.0020986)
(61.6681 -1.5371 0.001271)
(61.937 -1.1938 0.00075103)
(62.0687 -0.81637 0.00053615)
(62.1166 -0.47642 0.0016806)
(62.1267 -0.1605 0.0017696)
(49.5047 -4.4148 0.013158)
(54.7455 -6.2353 0.0090581)
(58.9851 -3.4551 0.0054995)
(60.6786 -3.3068 0.0034291)
(61.7066 -2.6111 0.0021196)
(62.2016 -1.8747 0.0012791)
(62.3992 -1.3768 0.00075143)
(62.4703 -0.91895 0.000522)
(62.4793 -0.52602 0.0016065)
(62.4707 -0.17518 0.001697)
(55.0337 -6.8812 0.013231)
(56.782 -10.5208 0.0091508)
(60.7716 -5.5208 0.0055547)
(62.0359 -4.0537 0.0034432)
(62.6535 -3.0494 0.0021164)
(62.9192 -2.0803 0.0012705)
(62.9595 -1.4558 0.00074161)
(62.9238 -0.95056 0.0005011)
(62.8707 -0.53638 0.0015291)
(62.834 -0.17731 0.0016247)
(63.7905 -6.0377 0.012767)
(61.046 -11.0895 0.0082081)
(63.5564 -5.5427 0.004733)
(63.8515 -3.8043 0.0029145)
(63.8223 -2.8391 0.0017779)
(63.7244 -1.8749 0.0010646)
(63.5461 -1.2889 0.0006277)
(63.3783 -0.83108 0.00044996)
(63.2525 -0.46609 0.0015012)
(63.1844 -0.15143 0.0015483)
(69.5425 -3.7782 0.01167)
(64.6979 -9.2745 0.007083)
(65.8271 -4.7141 0.0039168)
(65.3464 -2.986 0.0024097)
(64.8039 -2.2719 0.001458)
(64.403 -1.4568 0.00087223)
(64.0406 -0.9856 0.00052122)
(63.7605 -0.62706 0.00040025)
(63.5709 -0.34962 0.0014521)
(63.4736 -0.11115 0.0014617)
(73.0876 -0.9353 0.010242)
(67.5301 -5.9904 0.0058137)
(67.4644 -3.2789 0.0031636)
(66.4445 -1.74 0.0019701)
(65.5275 -1.4069 0.0012022)
(64.8925 -0.85743 0.0007305)
(64.3894 -0.56456 0.00044553)
(64.0238 -0.35028 0.00036588)
(63.7857 -0.19321 0.0013899)
(63.666 -0.058962 0.0013712)
(74.7556 2.0435 0.0094486)
(69.2815 -1.9249 0.0049788)
(68.3227 -1.4215 0.0027353)
(67.022 -0.2557 0.0017188)
(65.9007 -0.34028 0.0010607)
(65.1243 -0.13453 0.00065839)
(64.5409 -0.063713 0.00041025)
(64.128 -0.024418 0.00035247)
(63.8635 -0.0099548 0.0013193)
(63.7319 0.0008167 0.00128)
(74.7168 4.8449 0.0093542)
(69.8676 2.367 0.0048046)
(68.3726 0.72606 0.0026588)
(67.0147 1.2846 0.0016737)
(65.8685 0.81252 0.0010376)
(65.0589 0.64018 0.00065069)
(64.466 0.46725 0.0004091)
(64.0511 0.31848 0.00035486)
(63.7874 0.18211 0.00124)
(63.6565 0.062811 0.0011894)
(72.9202 7.2146 0.0087502)
(69.1272 6.3551 0.0045962)
(67.58 3.0214 0.0024716)
(66.3835 2.7386 0.0015383)
(65.4004 1.9153 0.0009548)
(64.6849 1.3819 0.00059803)
(64.1621 0.96947 0.00037581)
(63.7949 0.64083 0.00033095)
(63.5604 0.36224 0.0011398)
(63.4434 0.12111 0.0010952)
(68.8057 8.7751 0.0063873)
(66.765 9.493 0.003533)
(65.8443 5.14 0.0017727)
(65.1269 3.9457 0.0010819)
(64.5156 2.8023 0.00068508)
(64.0325 1.9842 0.00043422)
(63.6598 1.3759 0.00027416)
(63.3868 0.90217 0.00025641)
(63.2074 0.5089 0.0010206)
(63.1157 0.1689 0.00099633)
(61.7781 8.9146 0.003033)
(62.6634 10.8274 0.0019177)
(63.263 6.4734 0.00087594)
(63.4169 4.6231 0.00054035)
(63.3545 3.2991 0.0003744)
(63.2023 2.3421 0.00025209)
(63.0317 1.6285 0.00016242)
(62.8812 1.0705 0.00016776)
(62.7719 0.60601 0.00090256)
(62.712 0.20092 0.00090052)
(53.8496 6.856 0.001016)
(58.3011 9.1424 0.00089421)
(60.6848 6.258 0.00031119)
(61.7406 4.5158 0.00018285)
(62.1924 3.3138 0.0001421)
(62.3521 2.4104 0.00010357)
(62.3751 1.7054 6.8664e-05)
(62.3441 1.1344 8.1077e-05)
(62.304 0.64763 0.00079451)
(62.2761 0.21465 0.00081144)
(52.4783 2.6579 0.00069717)
(57.0082 4.931 0.00073354)
(59.4244 4.665 0.00014486)
(60.6721 3.8015 3.796e-05)
(61.3211 2.9748 2.2488e-05)
(61.6426 2.2546 1.614e-05)
(61.7859 1.6386 1.0398e-05)
(61.8382 1.1088 6.2334e-06)
(61.8498 0.6396 0.00070174)
(61.8471 0.21075 0.00073288)
(55.8531 1.2573 0.00065681)
(57.6412 2.7769 0.00065417)
(59.137 3.0891 6.9571e-05)
(60.1139 2.8117 5.3094e-06)
(60.7197 2.3609 3.3845e-07)
(61.0775 1.8785 2.2664e-08)
(61.2762 1.4131 -1.3063e-08)
(61.3788 0.97909 -2.4221e-08)
(61.4266 0.57366 0.00063492)
(61.4435 0.19025 0.00066011)
(57.5159 0.67429 0.0005849)
(58.3045 1.6467 0.00058357)
(59.1888 2.0384 3.9677e-05)
(59.8839 2.023 2.1541e-06)
(60.3717 1.8057 1.271e-07)
(60.6921 1.5011 1.1526e-08)
(60.8901 1.1656 -1.4566e-08)
(61.0052 0.8256 -2.6496e-08)
(61.0662 0.49076 0.00056953)
(61.0913 0.16369 0.00058691)
(58.4715 0.39414 0.00051239)
(58.8534 1.0226 0.00051171)
(59.3615 1.3593 2.2224e-05)
(59.8213 1.4379 8.7105e-07)
(60.1788 1.3487 6.2742e-08)
(60.4337 1.1638 8.3981e-09)
(60.6036 0.9291 -1.5448e-08)
(60.7094 0.67114 -2.8361e-08)
(60.7693 0.4041 0.00050226)
(60.7955 0.13548 0.00051364)
(59.0563 0.24428 0.00043958)
(59.2528 0.65788 0.00043922)
(59.5433 0.91687 1.2145e-05)
(59.8339 1.0156 3.6592e-07)
(60.0786 0.99012 4.4051e-08)
(60.2648 0.88088 7.3902e-09)
(60.396 0.7198 -1.603e-08)
(60.4819 0.52875 -2.9903e-08)
(60.5327 0.32191 0.0004333)
(60.5556 0.1084 0.00044032)
(59.4299 0.15692 0.00036658)
(59.5336 0.43254 0.00036639)
(59.6975 0.62209 6.3729e-06)
(59.8732 0.71208 1.7325e-07)
(60.0303 0.71482 3.882e-08)
(60.1559 0.6515 7.0073e-09)
(60.2484 0.54254 -1.6408e-08)
(60.3112 0.40411 -3.1153e-08)
(60.3493 0.24832 0.00036295)
(60.3669 0.08394 0.00036698)
(59.6742 0.10217 0.00029345)
(59.728 0.2858 0.00029336)
(59.8168 0.41972 3.1333e-06)
(59.9165 0.49166 1.033e-07)
(60.0094 0.50432 3.7429e-08)
(60.0866 0.46823 6.8677e-09)
(60.1452 0.39574 -1.6634e-08)
(60.1861 0.29804 -3.2138e-08)
(60.2114 0.18452 0.00029152)
(60.2233 0.062569 0.00029361)
(59.8342 0.065532 0.00022023)
(59.8598 0.18502 0.00022018)
(59.9033 0.27547 1.3928e-06)
(59.9536 0.32784 8.0007e-08)
(60.0019 0.34149 3.7109e-08)
(60.043 0.32138 6.846e-09)
(60.0749 0.27465 -1.6757e-08)
(60.0976 0.20858 -3.2893e-08)
(60.1118 0.12988 0.00021929)
(60.1185 0.044151 0.00022022)
(59.9337 0.039243 0.00014693)
(59.9436 0.11141 0.00014691)
(59.9606 0.16729 5.3781e-07)
(59.9806 0.20114 7.3433e-08)
(60.0001 0.21165 3.7119e-08)
(60.0169 0.20101 6.9175e-09)
(60.0302 0.17308 -1.6781e-08)
(60.0397 0.1322 -3.3412e-08)
(60.0457 0.082657 0.0001465)
(60.0485 0.028151 0.00014682)
(59.9852 0.018469 5.4977e-08)
(59.9874 0.052718 4.4137e-08)
(59.9911 0.07954 -7.3306e-05)
(59.9956 0.096165 -7.3411e-05)
(60 0.10174 -7.3432e-05)
(60.0038 0.097089 -7.3451e-05)
(60.0068 0.083929 -7.3466e-05)
(60.0089 0.064285 -7.3476e-05)
(60.0103 0.04027 -1.011e-07)
(60.0109 0.013687 -3.9188e-08)
)
;

boundaryField
{
    bump
    {
        type             noSlip;
    }
    outlet
    {
        type             zeroGradient;
    }
    inlet
    {
        type             fixedValue;
        value            uniform (60 0 0);
    }
    side1
    {
        type             empty;
    }
    side2
    {
        type             empty;
    }
    symmetry
    {
        type             symmetry;
    }
    top
    {
        type             symmetry;
    }
}

// ************************************************************************* //
