/*--------------------------------*- C++ -*----------------------------------*\\
| =========                 |                                                 |
| \\      /  F ield         | OpenFOAM: The Open Source CFD Toolbox           |
|  \\    /   O peration     | Version:  v1706                                 |
|   \\  /    A nd           | Web:      www.OpenFOAM.com                      |
|    \\/     M anipulation  |                                                 |
\\*---------------------------------------------------------------------------*/
FoamFile
{
    version     2.0;
    format      ascii;
    class       surfaceScalarField;
    location    "0.4";
    object      mdot_f;
}
// * * * * * * * * * * * * * * * * * * * * * * * * * * * * * * * * * * * * * //

dimensions      [1 0 -1 0 0 0 0]


internalField   nonuniform List<scalar>
560
(
-0.00014566
-0.13795
-0.00027971
-0.14134
-0.00070456
-0.14474
-0.00079073
-0.14686
-0.00069955
-0.14808
-0.00059644
-0.14887
-0.0004699
-0.14941
-0.0003218
-0.14979
-0.00016374
-0.15007
-0.15029
-0.00039835
-0.13755
-0.00059129
-0.14111
-0.00080804
-0.1445
-0.00087319
-0.14676
-0.00080245
-0.14813
-0.00067963
-0.14897
-0.00052669
-0.14954
-0.00035629
-0.14995
-0.00017702
-0.15024
-0.15046
-0.00057281
-0.13695
-0.00081911
-0.1408
-0.00096969
-0.1443
-0.0010092
-0.14668
-0.00092777
-0.14817
-0.00078374
-0.14908
-0.00060333
-0.14969
-0.00040403
-0.15012
-0.0001979
-0.15043
-0.15065
-0.00074386
-0.13617
-0.0010469
-0.14042
-0.0011739
-0.14411
-0.0011961
-0.1466
-0.0010953
-0.14823
-0.00092385
-0.14921
-0.00070968
-0.14987
-0.00047304
-0.15033
-0.00023017
-0.15065
-0.15087
-0.00095605
-0.13517
-0.001333
-0.13997
-0.0014438
-0.14394
-0.0014531
-0.14654
-0.0013307
-0.1483
-0.0011218
-0.14938
-0.00086253
-0.1501
-0.00057521
-0.15059
-0.00027936
-0.15092
-0.15114
-0.0012273
-0.1339
-0.0017161
-0.1394
-0.0018251
-0.14376
-0.001827
-0.14648
-0.0016766
-0.1484
-0.0014113
-0.14961
-0.0010824
-0.15041
-0.00072029
-0.15093
-0.00035129
-0.15127
-0.15148
-0.0015366
-0.13231
-0.0022546
-0.13861
-0.002427
-0.14354
-0.0024188
-0.14645
-0.0022038
-0.14859
-0.0018344
-0.14996
-0.0013892
-0.15083
-0.0009164
-0.15139
-0.00044723
-0.15174
-0.15193
-0.0018808
-0.13038
-0.0032026
-0.13724
-0.0035308
-0.14317
-0.0034108
-0.14654
-0.0029962
-0.14898
-0.0024146
-0.15053
-0.0017831
-0.15146
-0.0011578
-0.15202
-0.00056185
-0.15233
-0.1525
-0.0029831
-0.12736
-0.0054675
-0.13473
-0.0056513
-0.14297
-0.004986
-0.14719
-0.0040705
-0.14989
-0.0031112
-0.15149
-0.002215
-0.15236
-0.0014062
-0.15284
-0.00067718
-0.15308
-0.15319
-0.0086793
-0.11867
-0.01042
-0.13299
-0.0090006
-0.1444
-0.0070034
-0.1492
-0.0052314
-0.15168
-0.0037699
-0.15297
-0.0025812
-0.15357
-0.0016006
-0.15384
-0.00076482
-0.15394
-0.15397
0.020044
-0.13871
0.024125
-0.13711
0.025066
-0.14537
0.024033
-0.1482
0.021419
-0.1491
0.017866
-0.14945
0.013766
-0.14951
0.0093327
-0.14944
0.0047048
-0.14934
-0.14928
0.0122
-0.15093
0.017281
-0.14224
0.018714
-0.14685
0.018182
-0.14771
0.016391
-0.14735
0.013786
-0.14688
0.010673
-0.14644
0.0072533
-0.14606
0.0036589
-0.14579
-0.14565
0.0073374
-0.15829
0.011906
-0.14688
0.013242
-0.14824
0.012957
-0.14748
0.011743
-0.14619
0.0099233
-0.14512
0.0077081
-0.14427
0.0052484
-0.14365
0.0026474
-0.14324
-0.14303
0.0039277
-0.16226
0.0073776
-0.15041
0.0083349
-0.14927
0.0081678
-0.14738
0.0074039
-0.14549
0.0062603
-0.14403
0.0048652
-0.14294
0.0033122
-0.14215
0.001667
-0.14164
-0.14139
0.0011392
-0.16345
0.0031934
-0.15255
0.0036918
-0.14984
0.0035996
-0.14735
0.0032389
-0.1452
0.0027208
-0.14358
0.0021025
-0.14238
0.0014227
-0.14153
0.00070769
-0.14098
-0.14071
-0.0014218
-0.16208
-0.00093528
-0.15311
-0.0009088
-0.14994
-0.00093602
-0.14739
-0.00089816
-0.1453
-0.00079873
-0.14374
-0.00064805
-0.14258
-0.00045985
-0.14177
-0.00024817
-0.14125
-0.14098
-0.0040021
-0.15812
-0.005129
-0.15206
-0.0056261
-0.1495
-0.0056068
-0.14747
-0.0051574
-0.1458
-0.0044126
-0.14453
-0.0034638
-0.14358
-0.0023821
-0.1429
-0.0012218
-0.14246
-0.14223
-0.0067156
-0.15145
-0.0095308
-0.1493
-0.010662
-0.14842
-0.010599
-0.14758
-0.0096842
-0.14676
-0.0082211
-0.14604
-0.0064091
-0.14544
-0.0043819
-0.14497
-0.002231
-0.14465
-0.14448
-0.010293
-0.14119
-0.015116
-0.14452
-0.016715
-0.14686
-0.016308
-0.14802
-0.014679
-0.14843
-0.012324
-0.14843
-0.0095327
-0.14827
-0.0064817
-0.14806
-0.0032843
-0.14789
-0.14778
-0.019054
-0.12216
-0.024308
-0.1393
-0.024761
-0.14643
-0.023082
-0.14973
-0.020257
-0.15128
-0.016754
-0.15196
-0.012841
-0.15221
-0.0086802
-0.15225
-0.0043804
-0.15222
-0.15217
0.011299
-0.13348
0.011935
-0.13996
0.010379
-0.1449
0.0084153
-0.14779
0.0065487
-0.14944
0.0049038
-0.15034
0.0034746
-0.1508
0.0022142
-0.15101
0.0010677
-0.15109
-0.15111
0.0055958
-0.13909
0.0074912
-0.14187
0.0073536
-0.14477
0.0064561
-0.1469
0.0053151
-0.14831
0.0041427
-0.14918
0.0030188
-0.14969
0.0019611
-0.14997
0.00095805
-0.15011
-0.15016
0.0030959
-0.1422
0.0047232
-0.14351
0.0051114
-0.14517
0.0048033
-0.1466
0.0041536
-0.14767
0.0033557
-0.14839
0.0025088
-0.14886
0.0016586
-0.14913
0.00081943
-0.14928
-0.14934
0.0018462
-0.14405
0.0030457
-0.14471
0.0035343
-0.14566
0.0035061
-0.14658
0.0031588
-0.14732
0.0026319
-0.14787
0.0020125
-0.14824
0.0013513
-0.14848
0.00067425
-0.14861
-0.14867
0.0011581
-0.14521
0.0020046
-0.14555
0.0024414
-0.1461
0.0025238
-0.14666
0.0023498
-0.14715
0.0020085
-0.14753
0.0015654
-0.1478
0.0010651
-0.14798
0.00053609
-0.14809
-0.14813
0.00074794
-0.14595
0.0013347
-0.14614
0.0016801
-0.14644
0.0017903
-0.14677
0.00171
-0.14707
0.0014918
-0.14731
0.001181
-0.14749
0.00081255
-0.14761
0.00041205
-0.14769
-0.14772
0.00048664
-0.14644
0.0008862
-0.14653
0.0011406
-0.14668
0.0012422
-0.14686
0.0012094
-0.14703
0.0010716
-0.14717
0.0008588
-0.14728
0.00059626
-0.14735
0.00030445
-0.14739
-0.14741
0.00030991
-0.14674
0.00057263
-0.14678
0.00074791
-0.14685
0.00082671
-0.14694
0.00081583
-0.14701
0.00073106
-0.14708
0.00059107
-0.14713
0.00041313
-0.14717
0.0002123
-0.14719
-0.1472
0.00018316
-0.14692
0.00034183
-0.14693
0.00045016
-0.14695
0.00050187
-0.14698
0.00049926
-0.147
0.00045038
-0.14703
0.00036598
-0.14704
0.00025669
-0.14705
0.00013245
-0.14706
-0.14706
8.4993e-05
0.00015804
0.00020839
0.00023234
0.00023098
0.0002081
0.0001688
0.0001181
6.0404e-05
)
;

boundaryField
{
    bump
    {
        type             calculated;
        value            uniform 0;
    }
    outlet
    {
        type             calculated;
        value            nonuniform List<scalar>
10
(
0.15017
0.14997
0.14973
0.14939
0.14891
0.14819
0.14711
0.14517
0.14145
0.13812
)
;
    }
    inlet
    {
        type             calculated;
        value            nonuniform List<scalar>
10
(
-0.147
-0.147
-0.147
-0.147
-0.147
-0.147
-0.147
-0.147
-0.147
-0.147
)
;
    }
    side1
    {
        type             calculated;
        value            uniform 0;
    }
    side2
    {
        type             calculated;
        value            uniform 0;
    }
    symmetry
    {
        type             calculated;
        value            uniform 0;
    }
    top
    {
        type             calculated;
        value            uniform 0;
    }
}

// ************************************************************************* //
