/*--------------------------------*- C++ -*----------------------------------*\\
| =========                 |                                                 |
| \\      /  F ield         | OpenFOAM: The Open Source CFD Toolbox           |
|  \\    /   O peration     | Version:  v1706                                 |
|   \\  /    A nd           | Web:      www.OpenFOAM.com                      |
|    \\/     M anipulation  |                                                 |
\\*---------------------------------------------------------------------------*/
FoamFile
{
    version     2.0;
    format      ascii;
    class       volScalarField;
    location    "0.4";
    object      p;
}
// * * * * * * * * * * * * * * * * * * * * * * * * * * * * * * * * * * * * * //

dimensions      [1 -1 -2 0 0 0 0]


internalField   nonuniform List<scalar>
300
(
-0.37862
-2.0456
8.484
6.3824
2.6157
1.3085
0.24174
-0.71413
-1.4734
-2.0294
-19.0678
-14.6696
9.2055
13.4804
10.8287
9.8737
8.7335
7.402
6.217
5.3298
-31.8656
-23.8134
11.336
23.3888
22.1598
20.5458
18.254
15.6798
13.4212
11.8715
-31.0682
-23.4768
19.6775
38.5681
37.2887
33.0954
28.0458
23.0467
19.0041
16.4909
-1.3641
-2.8885
40.1063
61.2312
56.2547
46.4363
36.4991
27.8294
21.3682
17.6114
80.9768
53.0643
78.1372
91.246
76.6138
57.4448
40.7016
27.5753
18.405
13.3646
244.5109
158.8389
134.0671
122.5264
91.3764
60.3154
36.3551
19.1721
7.8781
1.9566
502.946
311.5526
192.8393
138.6585
88.1975
47.0803
18.5976
-0.1961
-11.851
-17.7576
787.5867
453.8907
213.0644
113.6488
53.0028
10.9283
-15.4657
-31.4693
-40.8548
-45.4849
793.6885
438.7153
136.6972
26.3237
-20.155
-48.0705
-63.7861
-72.2377
-76.7967
-79.0256
34.7948
132.9564
-51.4551
-113.1261
-119.1023
-120.1636
-119.1144
-117.0849
-115.4367
-114.7097
-511.962
-167.8448
-223.1392
-233.3148
-207.6421
-186.7759
-170.936
-159.4491
-152.1571
-148.6242
-923.685
-454.7788
-384.2648
-340.2667
-284.9524
-244.6893
-215.7638
-195.9098
-183.6154
-177.5687
-1203.9564
-692.0822
-515.8843
-424.3437
-343.5787
-287.6048
-248.5767
-222.4227
-206.3886
-198.4753
-1338.4094
-852.121
-601.4309
-474.8204
-376.6189
-310.5025
-265.5414
-235.9461
-217.9591
-209.086
-1293.7657
-898.93
-618.8807
-478.0972
-376.4878
-309.1857
-264.2016
-234.9015
-217.1772
-208.414
-1018.3758
-788.5962
-544.166
-422.4481
-338.1125
-282.0366
-244.4045
-219.7102
-204.6129
-197.0229
-480.2916
-493.069
-368.0983
-308.1114
-264.1689
-232.2083
-209.0306
-192.8603
-182.4435
-176.9049
234.7935
-69.5965
-130.863
-161.5253
-170.2852
-168.9746
-163.948
-158.4408
-153.9254
-150.9894
743.32
263.6254
60.8104
-35.8139
-83.5556
-106.8099
-117.4568
-121.7375
-122.9124
-122.6141
437.9171
256.0154
114.016
26.3302
-26.8458
-58.6632
-77.2277
-87.5935
-92.7992
-94.6326
289.0571
209.6517
121.9617
54.1947
6.6443
-25.3404
-46.1484
-59.0365
-66.2432
-69.2565
203.2188
163.985
111.4365
63.4366
25.3105
-2.9208
-22.7894
-35.9662
-43.7864
-47.2694
150.8781
129.5491
97.301
64.1575
35.1065
11.8289
-5.6246
-17.831
-25.3901
-28.893
117.7396
105.2104
84.6839
61.7367
40.0495
21.5149
6.8603
-3.8243
-10.6787
-13.9651
96.3438
88.4872
74.8749
58.7056
42.5178
27.9443
15.9094
6.8243
0.81606
-2.1465
82.51
77.2659
67.8178
56.0773
43.7862
32.2646
22.4022
14.7276
9.5261
6.8988
73.7855
70.032
63.0764
54.1416
44.4679
35.1115
26.871
20.3042
15.7607
13.4174
68.7984
65.8372
60.2582
52.9382
44.8232
36.7943
29.5825
23.7405
19.6425
17.5065
66.8055
64.1025
59.0724
52.4074
44.9315
37.453
30.6705
25.1335
21.2365
19.2381
)
;

boundaryField
{
    bump
    {
        type             zeroGradient;
    }
    outlet
    {
        type             fixedValue;
        value            uniform 0;
    }
    inlet
    {
        type             zeroGradient;
    }
    side1
    {
        type             empty;
    }
    side2
    {
        type             empty;
    }
    symmetry
    {
        type             symmetry;
    }
    top
    {
        type             symmetry;
    }
}

// ************************************************************************* //
