/*--------------------------------*- C++ -*----------------------------------*\\
| =========                 |                                                 |
| \\      /  F ield         | OpenFOAM: The Open Source CFD Toolbox           |
|  \\    /   O peration     | Version:  v1706                                 |
|   \\  /    A nd           | Web:      www.OpenFOAM.com                      |
|    \\/     M anipulation  |                                                 |
\\*---------------------------------------------------------------------------*/
FoamFile
{
    version     2.0;
    format      ascii;
    class       volVectorField;
    location    "0.4";
    object      U;
}
// * * * * * * * * * * * * * * * * * * * * * * * * * * * * * * * * * * * * * //

dimensions      [0 1 -1 0 0 0 0]


internalField   nonuniform List<vector>
300
(
(56.3774 -0.43348 0.0057912)
(57.7351 0.2647 0.0041434)
(59.2549 -0.38842 0.0021342)
(60.046 -0.41547 0.0012765)
(60.4842 -0.24352 0.00076607)
(60.7812 -0.2132 0.00045572)
(60.9772 -0.1692 0.00027001)
(61.1123 -0.11934 0.00023254)
(61.2129 -0.066658 0.0013834)
(61.2936 -0.025228 0.0014148)
(56.3409 -0.47336 0.0067604)
(57.7504 0.21603 0.0048289)
(59.1184 -0.41306 0.0026503)
(60.0108 -0.46432 0.0016383)
(60.5341 -0.27378 0.0010302)
(60.8484 -0.23563 0.00065533)
(61.0581 -0.1861 0.00042486)
(61.2036 -0.12961 0.00035706)
(61.3103 -0.071588 0.0014736)
(61.3936 -0.026642 0.0014963)
(56.2969 -0.48817 0.0076782)
(57.7467 0.23238 0.0054461)
(59.0798 -0.3821 0.0030702)
(59.9842 -0.52072 0.0018863)
(60.5385 -0.31727 0.0011695)
(60.8661 -0.26517 0.00072278)
(61.0847 -0.21056 0.00044223)
(61.2365 -0.14661 0.00034015)
(61.3458 -0.08192 0.0014178)
(61.4276 -0.030415 0.0014301)
(56.1977 -0.50013 0.0087534)
(57.7164 0.2735 0.006205)
(59.0362 -0.30324 0.003609)
(59.9378 -0.57693 0.0022372)
(60.5247 -0.38023 0.0014015)
(60.8751 -0.31107 0.00087601)
(61.1097 -0.25008 0.00054047)
(61.2735 -0.17609 0.00040046)
(61.3882 -0.099728 0.0014351)
(61.4688 -0.036509 0.0014358)
(55.9834 -0.53619 0.0098885)
(57.6144 0.29619 0.0070147)
(58.9546 -0.1956 0.0041819)
(59.8585 -0.64085 0.00261)
(60.4903 -0.4761 0.0016472)
(60.8801 -0.38723 0.0010377)
(61.1422 -0.31533 0.00064362)
(61.3233 -0.22557 0.00046286)
(61.4468 -0.13035 0.0014514)
(61.528 -0.047145 0.0014398)
(55.529 -0.63816 0.011053)
(57.3602 0.2323 0.0078542)
(58.7969 -0.099313 0.0047741)
(59.7345 -0.73481 0.0029941)
(60.4392 -0.62871 0.0018989)
(60.8936 -0.51422 0.0012022)
(61.1977 -0.41774 0.00074769)
(61.4028 -0.30074 0.00052454)
(61.5368 -0.17753 0.0014649)
(61.6176 -0.063757 0.0014412)
(54.6003 -0.87966 0.012209)
(56.8151 -0.045363 0.0086977)
(58.5215 -0.099323 0.0053669)
(59.5754 -0.90692 0.0033764)
(60.4006 -0.87413 0.002147)
(60.945 -0.71628 0.0013624)
(61.3015 -0.57148 0.00084772)
(61.5336 -0.40797 0.00058205)
(61.6765 -0.24146 0.0014735)
(61.7545 -0.08535 0.0014392)
(52.8034 -1.3956 0.013313)
(55.7965 -0.79028 0.0095161)
(58.1335 -0.3758 0.0059403)
(59.4559 -1.2463 0.0037425)
(60.451 -1.2542 0.0023811)
(61.0952 -1.0087 0.0015108)
(61.4952 -0.77868 0.00093826)
(61.7397 -0.54496 0.0006315)
(61.8808 -0.32002 0.0014751)
(61.9511 -0.11126 0.0014327)
(49.9049 -2.4626 0.014317)
(54.3395 -2.5203 0.010286)
(57.8355 -1.2586 0.0064779)
(59.5707 -1.8674 0.0040792)
(60.7184 -1.7887 0.0025906)
(61.4177 -1.3789 0.0016394)
(61.8183 -1.0157 0.0010137)
(62.0418 -0.6903 0.00066913)
(62.159 -0.40074 0.0014675)
(62.211 -0.13764 0.0014209)
(48.0585 -4.5091 0.01518)
(53.5104 -5.985 0.010987)
(58.2218 -3.0782 0.0069576)
(60.2433 -2.7796 0.0043645)
(61.3533 -2.3967 0.002757)
(61.9694 -1.7527 0.0017342)
(62.2861 -1.2302 0.0010647)
(62.4394 -0.81003 0.00068894)
(62.505 -0.46333 0.0014473)
(62.5259 -0.15742 0.0014023)
(53.8258 -6.9368 0.015841)
(55.6882 -10.4526 0.011527)
(59.9633 -5.4243 0.0072905)
(61.6015 -3.635 0.0045318)
(62.3467 -2.8222 0.0028299)
(62.714 -1.9805 0.0017593)
(62.8591 -1.3407 0.0010681)
(62.8963 -0.86087 0.00067745)
(62.8895 -0.48645 0.001407)
(62.8739 -0.16378 0.001376)
(62.6126 -6.0704 0.015602)
(60.0572 -11.1007 0.010783)
(62.776 -5.6262 0.0064764)
(63.4929 -3.4615 0.0039357)
(63.5966 -2.621 0.0024246)
(63.5632 -1.7862 0.0014941)
(63.467 -1.1862 0.0009048)
(63.3579 -0.75195 0.00059123)
(63.2679 -0.42404 0.0013824)
(63.2153 -0.14028 0.0013363)
(68.5902 -3.7813 0.014407)
(63.8783 -9.3366 0.0094038)
(65.1052 -4.948 0.0053358)
(65.0348 -2.7569 0.0031755)
(64.6386 -2.0682 0.001931)
(64.2811 -1.3705 0.0011792)
(63.9806 -0.89308 0.00071248)
(63.7463 -0.55693 0.00048758)
(63.5845 -0.31318 0.0013296)
(63.4988 -0.10105 0.0012804)
(72.4836 -0.89256 0.012567)
(66.9932 -6.0125 0.0076244)
(66.8763 -3.5718 0.0041167)
(66.1735 -1.6336 0.0024211)
(65.405 -1.2304 0.0014647)
(64.8046 -0.76883 0.00088969)
(64.347 -0.47882 0.00053576)
(64.0155 -0.28713 0.00039127)
(63.7983 -0.16093 0.0012602)
(63.6868 -0.04927 0.0012151)
(74.521 2.1487 0.011047)
(69.0787 -1.8064 0.0061358)
(67.9417 -1.6405 0.0032275)
(66.8089 -0.23015 0.0018971)
(65.8106 -0.19616 0.0011425)
(65.0645 -0.042052 0.00068947)
(64.5142 0.018191 0.00041348)
(64.1258 0.034253 0.00032537)
(63.8761 0.019654 0.001187)
(63.7493 0.010413 0.0011466)
(74.6929 5.0056 0.010194)
(69.9045 2.665 0.0053398)
(68.1998 0.69159 0.0027814)
(66.871 1.3033 0.0016526)
(65.8039 0.93087 0.00099504)
(65.0214 0.7353 0.00059891)
(64.4527 0.54583 0.0003583)
(64.0552 0.37337 0.00029718)
(63.8011 0.20974 0.0011157)
(63.6716 0.072348 0.0010781)
(72.8171 7.3728 0.0091021)
(69.1976 6.7539 0.0047689)
(67.5418 3.1852 0.0024244)
(66.3118 2.803 0.0014333)
(65.3669 2.0184 0.0008628)
(64.6718 1.4738 0.00051863)
(64.1645 1.0427 0.0003102)
(63.8078 0.69083 0.00026977)
(63.5775 0.38749 0.0010338)
(63.4582 0.13022 0.0010064)
(68.4977 8.838 0.0064906)
(66.7154 9.8199 0.0035767)
(65.8399 5.3956 0.0017325)
(65.1075 4.0685 0.0010098)
(64.5121 2.9054 0.00061892)
(64.041 2.0731 0.00037714)
(63.6763 1.4446 0.00022719)
(63.4077 0.94776 0.0002131)
(63.228 0.53199 0.00094122)
(63.1312 0.17737 0.00093007)
(61.487 8.8549 0.0030116)
(62.5351 10.9671 0.0019062)
(63.2404 6.6898 0.00086702)
(63.4184 4.7731 0.00051733)
(63.3678 3.4082 0.00034387)
(63.2235 2.4292 0.00022074)
(63.0569 1.6936 0.00013563)
(62.907 1.1124 0.00014265)
(62.7949 0.62718 0.0008469)
(62.7287 0.20863 0.00085331)
(53.7077 6.7855 0.00097452)
(58.159 9.1799 0.00086188)
(60.6282 6.3982 0.00030306)
(61.7375 4.6541 0.0001755)
(62.2108 3.4194 0.00012961)
(62.3801 2.4911 8.9295e-05)
(62.4061 1.7642 5.6752e-05)
(62.3738 1.1711 7.0326e-05)
(62.3292 0.66606 0.00075778)
(62.2944 0.22125 0.00077944)
(52.4398 2.6334 0.00067629)
(56.9195 4.9278 0.00070837)
(59.356 4.7259 0.0001386)
(60.6478 3.8909 3.7094e-05)
(61.3225 3.056 2.2063e-05)
(61.6573 2.3206 1.5782e-05)
(61.8071 1.6885 1.051e-05)
(61.8604 1.1407 6.928e-06)
(61.8696 0.65623 0.00067991)
(61.8632 0.21681 0.00071266)
(55.8432 1.2511 0.00064476)
(57.6102 2.7835 0.00064087)
(59.1112 3.1287 6.9498e-05)
(60.11 2.8704 7.1042e-06)
(60.7309 2.4195 2.3024e-06)
(61.096 1.9285 1.9755e-06)
(61.2974 1.452 1.9048e-06)
(61.399 1.0049 1.8526e-06)
(61.4432 0.58785 0.00062132)
(61.4565 0.19558 0.00064768)
(57.5192 0.67341 0.00057785)
(58.3002 1.6555 0.00057602)
(59.1855 2.0657 4.0946e-05)
(59.8901 2.0614 3.6631e-06)
(60.3859 1.8462 1.6183e-06)
(60.7098 1.537 1.4851e-06)
(60.9081 1.1939 1.4345e-06)
(61.0213 0.84477 1.3936e-06)
(61.0788 0.50185 0.00056119)
(61.1008 0.16803 0.00057965)
(58.4831 0.39386 0.0005086)
(58.8623 1.0294 0.00050772)
(59.3707 1.3777 2.3612e-05)
(59.834 1.4625 1.9613e-06)
(60.1946 1.375 1.113e-06)
(60.4503 1.1879 1.0466e-06)
(60.6186 0.94808 1.0072e-06)
(60.7218 0.684 9.7555e-07)
(60.7784 0.41209 0.00049751)
(60.802 0.13884 0.00050974)
(59.0724 0.2437 0.00043774)
(59.2669 0.66181 0.00043732)
(59.5575 0.92812 1.3202e-05)
(59.8489 1.03 1.0708e-06)
(60.0938 1.0055 7.2279e-07)
(60.279 0.89515 6.7948e-07)
(60.4079 0.73101 6.4716e-07)
(60.4907 0.53623 6.2242e-07)
(60.5382 0.32689 0.00043085)
(60.5593 0.11068 0.00043844)
(59.4463 0.15605 0.0003658)
(59.5483 0.43392 0.0003656)
(59.7119 0.62767 7.0207e-06)
(59.8872 0.71918 5.7759e-07)
(60.0431 0.72217 4.3113e-07)
(60.1669 0.65814 3.9632e-07)
(60.2569 0.54767 3.6871e-07)
(60.3166 0.40738 3.4868e-07)
(60.3519 0.25072 0.00036183)
(60.3682 0.085221 0.00036618)
(59.6879 0.1011 0.00029317)
(59.7402 0.28534 0.00029309)
(59.8284 0.42123 3.4492e-06)
(59.9272 0.49357 2.9997e-07)
(60.0187 0.50603 2.3036e-07)
(60.0938 0.4694 1.9932e-07)
(60.1501 0.39628 1.7485e-07)
(60.1886 0.29807 1.5774e-07)
(60.2117 0.18493 0.00029109)
(60.2227 0.063057 0.00029333)
(59.8433 0.064417 0.00022014)
(59.8677 0.18343 0.00022011)
(59.9107 0.27431 1.5013e-06)
(59.9602 0.32632 1.5137e-07)
(60.0073 0.33957 1.0862e-07)
(60.0468 0.31906 7.9659e-08)
(60.0769 0.27215 5.7222e-08)
(60.0978 0.20635 4.1784e-08)
(60.1105 0.1287 0.00021917)
(60.117 0.043936 0.00022014)
(59.9383 0.038282 0.0001469)
(59.9473 0.10934 0.00014689)
(59.964 0.1646 5.4806e-07)
(59.9835 0.19764 8.2164e-08)
(60.0022 0.20758 4.7624e-08)
(60.0181 0.19668 1.9956e-08)
(60.0303 0.1689 -1.2606e-09)
(60.0388 0.12868 -1.585e-08)
(60.0439 0.080352 0.00014648)
(60.0467 0.027359 0.0001468)
(59.9865 0.017671 4.1423e-08)
(59.9883 0.050551 3.5545e-08)
(59.992 0.076241 -7.3317e-05)
(59.9962 0.091855 -7.3417e-05)
(60.0004 0.096739 -7.3437e-05)
(60.0039 0.091861 -7.3454e-05)
(60.0066 0.079005 -7.3467e-05)
(60.0084 0.060222 -7.3476e-05)
(60.0095 0.03755 -9.926e-08)
(60.0101 0.012714 -4.5327e-08)
)
;

boundaryField
{
    bump
    {
        type             noSlip;
    }
    outlet
    {
        type             zeroGradient;
    }
    inlet
    {
        type             fixedValue;
        value            uniform (60 0 0);
    }
    side1
    {
        type             empty;
    }
    side2
    {
        type             empty;
    }
    symmetry
    {
        type             symmetry;
    }
    top
    {
        type             symmetry;
    }
}

// ************************************************************************* //
