/*--------------------------------*- C++ -*----------------------------------*\\
| =========                 |                                                 |
| \\      /  F ield         | OpenFOAM: The Open Source CFD Toolbox           |
|  \\    /   O peration     | Version:  v1706                                 |
|   \\  /    A nd           | Web:      www.OpenFOAM.com                      |
|    \\/     M anipulation  |                                                 |
\\*---------------------------------------------------------------------------*/
FoamFile
{
    version     2.0;
    format      ascii;
    class       surfaceScalarField;
    location    "1";
    object      mdot_f;
}
// * * * * * * * * * * * * * * * * * * * * * * * * * * * * * * * * * * * * * //

dimensions      [1 0 -1 0 0 0 0]


internalField   nonuniform List<scalar>
560
(
-0.00021544
-0.14021
-0.0003034
-0.14263
-0.00051086
-0.14567
-0.00061926
-0.14764
-0.00060985
-0.14856
-0.00057058
-0.14892
-0.00046092
-0.1491
-0.00033139
-0.14912
-0.00017512
-0.14909
-0.14905
-0.00027547
-0.13993
-0.00044262
-0.14247
-0.00061145
-0.1455
-0.0007117
-0.14754
-0.00070831
-0.14856
-0.00065345
-0.14897
-0.00053679
-0.14922
-0.00038029
-0.14928
-0.0001979
-0.14927
-0.14924
-0.00037739
-0.13956
-0.00061317
-0.14223
-0.00079549
-0.14532
-0.00089737
-0.14743
-0.00088003
-0.14858
-0.00079798
-0.14905
-0.00065342
-0.14936
-0.00045917
-0.14947
-0.00023685
-0.14949
-0.14948
-0.00054078
-0.13901
-0.00086606
-0.1419
-0.0010798
-0.1451
-0.0011848
-0.14733
-0.0011372
-0.14862
-0.0010081
-0.14918
-0.00081522
-0.14955
-0.0005683
-0.14972
-0.00029125
-0.14977
-0.14977
-0.00081364
-0.1382
-0.0012564
-0.14146
-0.0014888
-0.14487
-0.0015812
-0.14723
-0.0014846
-0.14872
-0.0012869
-0.14938
-0.0010255
-0.14981
-0.00070909
-0.15003
-0.00036132
-0.15011
-0.15013
-0.0012306
-0.13697
-0.0018055
-0.14088
-0.0020215
-0.14465
-0.0020849
-0.14717
-0.0019279
-0.14887
-0.0016425
-0.14966
-0.0012907
-0.15016
-0.00088478
-0.15044
-0.0004484
-0.15055
-0.15058
-0.0017348
-0.13523
-0.0024907
-0.14012
-0.0026985
-0.14444
-0.002736
-0.14713
-0.0025072
-0.1491
-0.002102
-0.15006
-0.0016235
-0.15064
-0.0010995
-0.15096
-0.00055327
-0.15109
-0.15113
-0.0022394
-0.13299
-0.0035016
-0.13886
-0.0037805
-0.14416
-0.0037173
-0.14719
-0.0033154
-0.1495
-0.0026995
-0.15068
-0.0020284
-0.15131
-0.0013476
-0.15164
-0.00067046
-0.15177
-0.1518
-0.0035363
-0.12945
-0.0058934
-0.1365
-0.0059233
-0.14413
-0.0052866
-0.14783
-0.0043982
-0.15039
-0.0034065
-0.15167
-0.0024644
-0.15225
-0.001596
-0.15251
-0.00078266
-0.15258
-0.15258
-0.0095116
-0.11994
-0.011122
-0.13489
-0.0093764
-0.14588
-0.0072856
-0.14992
-0.0055377
-0.15213
-0.0040552
-0.15315
-0.0028203
-0.15348
-0.0017796
-0.15355
-0.00086036
-0.1535
-0.15344
0.020605
-0.14055
0.024615
-0.1389
0.025426
-0.14669
0.024127
-0.14862
0.021311
-0.14932
0.017692
-0.14953
0.013586
-0.14938
0.0091841
-0.14914
0.004624
-0.14894
-0.14882
0.012292
-0.15284
0.017267
-0.14387
0.018718
-0.14814
0.018127
-0.14802
0.016224
-0.14741
0.013569
-0.14688
0.010468
-0.14628
0.0070993
-0.14577
0.0035825
-0.14542
-0.14524
0.0072099
-0.16005
0.011592
-0.14825
0.012918
-0.14946
0.012703
-0.14781
0.011484
-0.1462
0.0096619
-0.14505
0.0074814
-0.1441
0.0050867
-0.14338
0.0025713
-0.1429
-0.14266
0.0037031
-0.16375
0.0069227
-0.15147
0.0077887
-0.15033
0.0077345
-0.14776
0.0070451
-0.14551
0.0059485
-0.14396
0.0046155
-0.14276
0.0031424
-0.14191
0.0015898
-0.14135
-0.14107
0.00090737
-0.16466
0.0027428
-0.15331
0.0030697
-0.15066
0.0030593
-0.14775
0.0028083
-0.14526
0.0023705
-0.14352
0.0018355
-0.14223
0.0012469
-0.14132
0.00062991
-0.14073
-0.14044
-0.001596
-0.16306
-0.0012656
-0.15364
-0.0014498
-0.15047
-0.0014652
-0.14773
-0.0013332
-0.14539
-0.0011493
-0.1437
-0.00091135
-0.14247
-0.00063156
-0.1416
-0.00032308
-0.14104
-0.14077
-0.0041298
-0.15893
-0.0053155
-0.15246
-0.0059731
-0.14982
-0.0060018
-0.1477
-0.0055115
-0.14588
-0.0047101
-0.1445
-0.0036926
-0.14348
-0.002533
-0.14276
-0.0012873
-0.14229
-0.14206
-0.0068633
-0.15207
-0.009652
-0.14967
-0.010849
-0.14862
-0.010852
-0.1477
-0.0099399
-0.14679
-0.0084493
-0.146
-0.0065906
-0.14534
-0.0045029
-0.14485
-0.0022825
-0.14451
-0.14434
-0.01051
-0.14156
-0.015301
-0.14488
-0.016883
-0.14704
-0.016502
-0.14808
-0.014874
-0.14842
-0.012498
-0.14837
-0.009671
-0.14817
-0.0065729
-0.14794
-0.0033211
-0.14776
-0.14766
-0.019323
-0.12224
-0.024624
-0.13958
-0.025013
-0.14665
-0.023282
-0.14981
-0.020423
-0.15128
-0.01689
-0.15191
-0.012943
-0.15212
-0.0087444
-0.15214
-0.0044032
-0.15211
-0.15206
0.011312
-0.13355
0.011825
-0.14009
0.010191
-0.14502
0.0082067
-0.14783
0.0063486
-0.14942
0.0047318
-0.15029
0.0033427
-0.15073
0.0021294
-0.15093
0.0010334
-0.15101
-0.15103
0.0055788
-0.13913
0.0074126
-0.14193
0.0072161
-0.14482
0.0062994
-0.14692
0.0051618
-0.14829
0.0040078
-0.14914
0.0029137
-0.14964
0.0018923
-0.14991
0.00092919
-0.15005
-0.1501
0.0030721
-0.1422
0.0046623
-0.14352
0.0050134
-0.14518
0.004689
-0.14659
0.0040399
-0.14764
0.0032544
-0.14836
0.0024291
-0.14881
0.0016061
-0.14909
0.00079711
-0.14924
-0.14931
0.0018268
-0.14403
0.003001
-0.1447
0.0034665
-0.14564
0.0034263
-0.14655
0.0030787
-0.14729
0.0025602
-0.14784
0.0019556
-0.14821
0.0013137
-0.14845
0.00065821
-0.14859
-0.14865
0.0011453
-0.14518
0.0019749
-0.14553
0.0023975
-0.14607
0.0024722
-0.14663
0.0022979
-0.14712
0.001962
-0.1475
0.0015286
-0.14778
0.0010408
-0.14796
0.00052564
-0.14807
-0.14812
0.00074162
-0.14592
0.0013178
-0.1461
0.0016553
-0.14641
0.0017615
-0.14674
0.0016811
-0.14704
0.0014662
-0.14729
0.001161
-0.14747
0.00079947
-0.1476
0.00040642
-0.14768
-0.14772
0.00048564
-0.14641
0.00087953
-0.1465
0.0011307
-0.14666
0.0012309
-0.14684
0.0011985
-0.14701
0.0010626
-0.14715
0.0008522
-0.14726
0.00059221
-0.14734
0.00030268
-0.14739
-0.14742
0.00031296
-0.14672
0.00057369
-0.14676
0.00074895
-0.14683
0.00082837
-0.14692
0.00081837
-0.147
0.0007344
-0.14707
0.00059464
-0.14713
0.00041604
-0.14717
0.00021347
-0.14719
-0.1472
0.00018851
-0.14691
0.00034802
-0.14692
0.00045871
-0.14695
0.00051246
-0.14697
0.00051105
-0.147
0.00046233
-0.14702
0.00037674
-0.14704
0.00026476
-0.14705
0.00013619
-0.14706
-0.14707
9.0251e-05
0.00016737
0.00022152
0.00024843
0.00024863
0.0002256
0.00018426
0.00012969
6.6798e-05
)
;

boundaryField
{
    bump
    {
        type             calculated;
        value            uniform 0;
    }
    outlet
    {
        type             calculated;
        value            nonuniform List<scalar>
10
(
0.1489
0.14896
0.14902
0.14904
0.14894
0.14862
0.1478
0.14592
0.14277
0.14048
)
;
    }
    inlet
    {
        type             calculated;
        value            nonuniform List<scalar>
10
(
-0.147
-0.147
-0.147
-0.147
-0.147
-0.147
-0.147
-0.147
-0.147
-0.147
)
;
    }
    side1
    {
        type             calculated;
        value            uniform 0;
    }
    side2
    {
        type             calculated;
        value            uniform 0;
    }
    symmetry
    {
        type             calculated;
        value            uniform 0;
    }
    top
    {
        type             calculated;
        value            uniform 0;
    }
}

// ************************************************************************* //
