/*--------------------------------*- C++ -*----------------------------------*\\
| =========                 |                                                 |
| \\      /  F ield         | OpenFOAM: The Open Source CFD Toolbox           |
|  \\    /   O peration     | Version:  v1706                                 |
|   \\  /    A nd           | Web:      www.OpenFOAM.com                      |
|    \\/     M anipulation  |                                                 |
\\*---------------------------------------------------------------------------*/
FoamFile
{
    version     2.0;
    format      ascii;
    class       volScalarField;
    location    "1";
    object      p;
}
// * * * * * * * * * * * * * * * * * * * * * * * * * * * * * * * * * * * * * //

dimensions      [1 -1 -2 0 0 0 0]


internalField   nonuniform List<scalar>
300
(
2.7066
-0.10979
5.0122
4.2619
2.2601
1.0211
-1.9078
-2.9539
-3.7035
-4.2336
12.9348
6.7612
11.9271
9.6924
5.1164
2.0209
-3.3709
-6.1452
-7.8606
-8.9361
32.1471
19.8662
21.2767
15.5662
7.4193
2.2787
-5.4184
-10.1555
-12.9503
-14.5718
57.6315
36.4383
31.4338
20.608
7.768
0.52974
-9.0925
-15.7812
-19.684
-21.8134
81.5562
50.7631
39.9335
24.3926
6.0077
-3.6902
-14.9903
-23.5708
-28.6206
-31.2637
102.0581
62.1721
47.9973
29.1251
3.528
-10.308
-23.6563
-34.1494
-40.3761
-43.5219
147.5483
88.2937
63.3575
37.8414
0.93031
-20.2042
-36.3883
-48.6375
-55.7881
-59.2536
285.7245
160.9874
89.0444
44.6033
-7.4219
-37.4551
-55.8878
-68.577
-75.6832
-78.9942
525.4036
264.2384
94.8437
24.5099
-35.3758
-68.664
-85.1924
-95.1573
-100.3421
-102.6705
559.8143
246.9783
13.2735
-53.0694
-94.8013
-117.1694
-124.6323
-127.761
-128.8157
-129.2301
-175.6466
-53.374
-177.9212
-182.6003
-178.7219
-176.8512
-169.3554
-162.8405
-158.4016
-156.3648
-672.1873
-325.0192
-344.5348
-296.236
-254.6154
-230.7805
-209.8688
-194.7264
-185.1612
-180.6805
-1004.3116
-554.2327
-481.6683
-392.3002
-319.0086
-275.3324
-242.5272
-219.927
-205.9205
-199.2668
-1188.2007
-710.8456
-567.0516
-455.2184
-361.4396
-303.493
-262.2813
-234.5029
-217.4463
-209.2928
-1238.5637
-789.0971
-594.543
-476.0613
-374.9791
-310.2669
-265.4636
-235.6378
-217.4545
-208.7644
-1161.2028
-787.7721
-564.4364
-450.4507
-355.4958
-292.9368
-250.3662
-222.2582
-205.2135
-197.0728
-926.0937
-686.9669
-471.7022
-376.0722
-301.8904
-251.9119
-218.0103
-195.5504
-181.8805
-175.2842
-460.525
-439.4851
-305.0692
-255.4171
-218.6814
-191.8605
-172.4443
-158.8804
-150.3091
-145.9858
236.0857
-44.8086
-82.2419
-109.8098
-120.9717
-122.6272
-120.3497
-117.0919
-114.3465
-112.6115
788.5056
300.4908
105.8181
14.2031
-33.0145
-57.2831
-69.4474
-75.279
-77.8403
-78.5496
490.8024
303.8042
163.2962
78.3564
25.8425
-6.5018
-26.0542
-37.5417
-43.8312
-46.4577
343.7472
262.6516
174.8683
108.1673
61.0343
28.7474
7.2984
-6.3857
-14.4118
-18.0121
259.1999
219.3671
166.6579
118.9699
80.9991
52.5611
32.2443
18.5033
10.0764
6.152
207.641
186.0652
153.7274
120.6268
91.5888
68.1459
50.3641
37.7634
29.7661
25.9431
174.7953
162.1196
141.5401
118.5608
96.8178
78.1472
63.2629
52.2971
45.1412
41.6523
153.2861
145.3044
131.6513
115.4337
99.1715
84.4945
72.3035
63.0255
56.8291
53.7594
139.0541
133.699
124.2111
112.4306
100.0842
88.4897
78.5319
70.7489
65.4482
62.7868
129.8245
125.978
118.996
110.0457
100.3482
90.9542
82.6688
76.0526
71.4752
69.1518
124.431
121.4016
115.8159
108.4975
100.3821
92.3458
85.1203
79.2608
75.1608
73.0623
122.2604
119.5481
114.5147
107.8506
100.3777
92.8995
86.114
80.5716
76.6718
74.6653
)
;

boundaryField
{
    bump
    {
        type             zeroGradient;
    }
    outlet
    {
        type             fixedValue;
        value            uniform 0;
    }
    inlet
    {
        type             zeroGradient;
    }
    side1
    {
        type             empty;
    }
    side2
    {
        type             empty;
    }
    symmetry
    {
        type             symmetry;
    }
    top
    {
        type             symmetry;
    }
}

// ************************************************************************* //
