/*--------------------------------*- C++ -*----------------------------------*\\
| =========                 |                                                 |
| \\      /  F ield         | OpenFOAM: The Open Source CFD Toolbox           |
|  \\    /   O peration     | Version:  v1706                                 |
|   \\  /    A nd           | Web:      www.OpenFOAM.com                      |
|    \\/     M anipulation  |                                                 |
\\*---------------------------------------------------------------------------*/
FoamFile
{
    version     2.0;
    format      ascii;
    class       volVectorField;
    location    "1";
    object      U;
}
// * * * * * * * * * * * * * * * * * * * * * * * * * * * * * * * * * * * * * //

dimensions      [0 1 -1 0 0 0 0]


internalField   nonuniform List<vector>
300
(
(57.3405 -0.21976 0.013723)
(58.2727 -0.041129 0.0094251)
(59.5583 -0.13752 0.0053019)
(60.3265 -0.35672 0.0032765)
(60.6608 -0.20152 0.0020264)
(60.7914 -0.29033 0.0012282)
(60.8312 -0.19808 0.00073296)
(60.8263 -0.16315 0.00057635)
(60.8006 -0.10769 0.0022386)
(60.7752 -0.037059 0.0023251)
(57.2703 -0.2588 0.013672)
(58.2578 -0.068131 0.0093885)
(59.4681 -0.15211 0.0053584)
(60.2618 -0.40456 0.0033466)
(60.6476 -0.23549 0.0021009)
(60.8024 -0.32818 0.001304)
(60.8904 -0.23445 0.00080836)
(60.9045 -0.1845 0.00064862)
(60.8943 -0.12138 0.0022451)
(60.8797 -0.041974 0.0023318)
(57.101 -0.32138 0.013485)
(58.1485 -0.11981 0.009218)
(59.3829 -0.18312 0.0052753)
(60.213 -0.48803 0.003274)
(60.6433 -0.30181 0.0020311)
(60.8216 -0.39175 0.0012344)
(60.9363 -0.29465 0.00073783)
(60.9702 -0.22145 0.00057419)
(60.9715 -0.14447 0.0021042)
(60.9633 -0.05043 0.0021909)
(56.8708 -0.41951 0.013384)
(58.0046 -0.22367 0.0091343)
(59.2901 -0.25111 0.0052742)
(60.1682 -0.61701 0.0032798)
(60.6534 -0.40634 0.0020375)
(60.8586 -0.4821 0.0012396)
(60.9986 -0.3794 0.00074131)
(61.0546 -0.27565 0.00057261)
(61.0682 -0.17681 0.002036)
(61.0661 -0.061946 0.0021225)
(56.6157 -0.56862 0.013297)
(57.8576 -0.40611 0.009065)
(59.2037 -0.37195 0.0052821)
(60.1322 -0.80235 0.0032908)
(60.683 -0.55565 0.0020465)
(60.9202 -0.59951 0.0012462)
(61.0845 -0.48822 0.00074516)
(61.1635 -0.34799 0.00057006)
(61.1904 -0.21884 0.0019671)
(61.1947 -0.076586 0.0020532)
(56.3579 -0.77805 0.013226)
(57.723 -0.67466 0.0090126)
(59.1218 -0.53976 0.0052996)
(60.0922 -1.0455 0.003307)
(60.725 -0.75768 0.0020581)
(61.0087 -0.74706 0.0012537)
(61.2004 -0.62114 0.00074909)
(61.3041 -0.43928 0.0005661)
(61.3454 -0.27124 0.0018974)
(61.356 -0.094475 0.0019833)
(55.8928 -1.0573 0.013175)
(57.4739 -1.0325 0.0089797)
(58.9824 -0.74121 0.0053276)
(60.0167 -1.3515 0.0033285)
(60.7705 -1.0336 0.002072)
(61.131 -0.9384 0.001262)
(61.3586 -0.78246 0.00075282)
(61.4875 -0.55103 0.00056029)
(61.5423 -0.33423 0.0018269)
(61.5582 -0.11543 0.0019128)
(54.5385 -1.4911 0.013145)
(56.7702 -1.6237 0.0089684)
(58.7127 -1.0602 0.0053669)
(59.9253 -1.7732 0.0033559)
(60.8553 -1.4295 0.0020884)
(61.3223 -1.1975 0.0012709)
(61.5863 -0.97634 0.00075616)
(61.731 -0.68105 0.00055226)
(61.7916 -0.40534 0.0017556)
(61.8087 -0.1384 0.0018417)
(51.6943 -2.4224 0.013137)
(55.48 -3.0419 0.0089868)
(58.4894 -1.8305 0.0054224)
(60.0184 -2.4228 0.0033913)
(61.1064 -1.9815 0.0021082)
(61.6529 -1.5293 0.0012806)
(61.9211 -1.1893 0.00075901)
(62.0523 -0.81417 0.0005418)
(62.1001 -0.47508 0.0016833)
(62.1097 -0.16021 0.00177)
(49.4864 -4.4149 0.013175)
(54.728 -6.2341 0.0090708)
(58.9663 -3.454 0.0055072)
(60.6601 -3.3047 0.0034381)
(61.6897 -2.6078 0.0021314)
(62.1867 -1.8689 0.0012906)
(62.384 -1.373 0.00076078)
(62.4542 -0.91755 0.00052867)
(62.4626 -0.5256 0.00161)
(62.4533 -0.1753 0.0016979)
(55.0245 -6.8787 0.013246)
(56.7701 -10.5159 0.0091628)
(60.7567 -5.5181 0.0055622)
(62.0195 -4.0518 0.003452)
(62.6361 -3.0484 0.0021274)
(62.9032 -2.0768 0.0012809)
(62.9439 -1.4527 0.00075003)
(62.9078 -0.94958 0.00050706)
(62.8543 -0.53646 0.0015323)
(62.8172 -0.1776 0.0016255)
(63.7801 -6.0342 0.012778)
(61.0354 -11.083 0.0082146)
(63.5436 -5.5373 0.0047366)
(63.8375 -3.8003 0.0029211)
(63.8064 -2.838 0.0017867)
(63.7093 -1.8724 0.0010724)
(63.5317 -1.2865 0.0006337)
(63.3637 -0.8304 0.00045405)
(63.2376 -0.46629 0.0015033)
(63.1692 -0.15167 0.0015488)
(69.5284 -3.7748 0.011673)
(64.6846 -9.269 0.0070807)
(65.8143 -4.7082 0.0039134)
(65.3338 -2.981 0.0024106)
(64.7893 -2.2708 0.0014616)
(64.3888 -1.4553 0.00087541)
(64.0273 -0.98385 0.0005234)
(63.7471 -0.62653 0.00040158)
(63.5574 -0.34987 0.0014527)
(63.46 -0.11136 0.0014618)
(73.0703 -0.93304 0.010237)
(67.5139 -5.9881 0.0058034)
(67.4506 -3.2754 0.0031529)
(66.433 -1.7353 0.0019641)
(65.5147 -1.4056 0.001199)
(64.8795 -0.85668 0.00072778)
(64.3772 -0.56352 0.00044313)
(64.0118 -0.34993 0.000364)
(63.7736 -0.19344 0.0013886)
(63.6538 -0.059121 0.0013707)
(74.7392 2.0446 0.0094411)
(69.2655 -1.926 0.0049661)
(68.3087 -1.4218 0.0027222)
(67.0112 -0.25309 0.0017099)
(65.8898 -0.33901 0.0010543)
(65.1131 -0.13413 0.0006531)
(64.53 -0.063224 0.000406)
(64.1173 -0.024312 0.00034937)
(63.8528 -0.010235 0.0013173)
(63.7211 0.00068663 0.0012793)
(74.7052 4.8458 0.0093478)
(69.8554 2.365 0.0047946)
(68.3604 0.72333 0.0026483)
(67.0048 1.2849 0.0016661)
(65.8591 0.8133 0.0010319)
(65.0494 0.64036 0.000646)
(64.4566 0.46736 0.00040544)
(64.0418 0.31834 0.00035226)
(63.778 0.18173 0.0012383)
(63.647 0.062659 0.0011888)
(72.9123 7.2161 0.0087462)
(69.1191 6.3545 0.0045901)
(67.5705 3.0188 0.0024651)
(66.3747 2.7376 0.0015334)
(65.3923 1.9155 0.00095111)
(64.6768 1.3819 0.000595)
(64.154 0.96933 0.00037348)
(63.7868 0.64048 0.00032935)
(63.5523 0.36173 0.0011388)
(63.4351 0.12089 0.0010948)
(68.7983 8.7768 0.0063859)
(66.7593 9.4937 0.0035303)
(65.8376 5.1389 0.0017695)
(65.1199 3.9443 0.0010791)
(64.5088 2.8018 0.00068282)
(64.0258 1.984 0.00043233)
(63.6531 1.3756 0.00027272)
(63.38 0.9017 0.00025543)
(63.2006 0.50832 0.00102)
(63.1087 0.16864 0.00099613)
(61.7712 8.9154 0.0030328)
(62.6588 10.8279 0.001917)
(63.2584 6.4735 0.00087476)
(63.4118 4.6224 0.00053901)
(63.3491 3.2985 0.00037308)
(63.197 2.3417 0.00025096)
(63.0263 1.6282 0.00016157)
(62.8757 1.07 0.0001672)
(62.7663 0.60541 0.00090222)
(62.7062 0.20066 0.0009004)
(53.8444 6.856 0.0010159)
(58.2968 9.1426 0.00089396)
(60.6812 6.2586 0.00031087)
(61.7368 4.5158 0.00018241)
(62.1883 3.3135 0.00014162)
(62.3478 2.4101 0.00010315)
(62.3707 1.7051 6.8354e-05)
(62.3396 1.1339 8.0882e-05)
(62.2994 0.64707 0.0007944)
(62.2713 0.21441 0.00081141)
(52.4747 2.6578 0.00069715)
(57.0042 4.931 0.00073348)
(59.4209 4.6653 0.00014481)
(60.6689 3.8016 3.7888e-05)
(61.3178 2.9747 2.2413e-05)
(61.6392 2.2543 1.6072e-05)
(61.7825 1.6383 1.0347e-05)
(61.8346 1.1084 6.2001e-06)
(61.8461 0.63915 0.00070173)
(61.8433 0.21054 0.00073288)
(55.8502 1.2573 0.00065681)
(57.6384 2.777 0.00065418)
(59.1344 3.0893 6.9583e-05)
(60.1114 2.8117 5.3106e-06)
(60.7172 2.3609 3.3875e-07)
(61.0749 1.8783 2.2919e-08)
(61.2736 1.4129 -1.2853e-08)
(61.3761 0.97882 -2.4076e-08)
(61.4237 0.57332 0.00063492)
(61.4404 0.19007 0.00066012)
(57.5137 0.67431 0.0005849)
(58.3024 1.6468 0.00058357)
(59.1869 2.0385 3.9686e-05)
(59.882 2.023 2.1546e-06)
(60.3698 1.8057 1.2711e-07)
(60.6901 1.501 1.148e-08)
(60.8881 1.1654 -1.4664e-08)
(61.003 0.82537 -2.6662e-08)
(61.064 0.49051 0.00056953)
(61.089 0.16357 0.00058691)
(58.4699 0.39412 0.00051239)
(58.8519 1.0227 0.00051171)
(59.36 1.3594 2.223e-05)
(59.8199 1.4379 8.7117e-07)
(60.1774 1.3487 6.2529e-08)
(60.4322 1.1638 8.1353e-09)
(60.602 0.92897 -1.5763e-08)
(60.7078 0.67093 -2.8745e-08)
(60.7676 0.40391 0.00050225)
(60.7937 0.1354 0.00051364)
(59.0553 0.24428 0.00043958)
(59.2516 0.65791 0.00043922)
(59.5422 0.91694 1.2149e-05)
(59.8329 1.0156 3.6576e-07)
(60.0775 0.99008 4.3682e-08)
(60.2636 0.88082 6.9772e-09)
(60.3948 0.71969 -1.6492e-08)
(60.4807 0.52858 -3.0426e-08)
(60.5313 0.32174 0.0004333)
(60.5542 0.10833 0.00044032)
(59.4292 0.15694 0.00036658)
(59.5328 0.43257 0.00036639)
(59.6968 0.62209 6.3757e-06)
(59.8725 0.71206 1.7291e-07)
(60.0296 0.71475 3.8356e-08)
(60.1551 0.6514 6.5084e-09)
(60.2475 0.54243 -1.6945e-08)
(60.3102 0.40396 -3.1736e-08)
(60.3483 0.24816 0.00036295)
(60.3658 0.083868 0.00036698)
(59.6738 0.10218 0.00029345)
(59.7275 0.2858 0.00029336)
(59.8163 0.41968 3.1347e-06)
(59.9159 0.49159 1.0287e-07)
(60.0089 0.50421 3.6939e-08)
(60.086 0.46808 6.3554e-09)
(60.1445 0.39558 -1.7169e-08)
(60.1854 0.29788 -3.2696e-08)
(60.2107 0.18438 0.00029152)
(60.2225 0.062509 0.00029361)
(59.8339 0.065536 0.00022023)
(59.8595 0.185 0.00022018)
(59.903 0.27538 1.3933e-06)
(59.9533 0.32771 7.9605e-08)
(60.0016 0.34134 3.6672e-08)
(60.0426 0.32121 6.4043e-09)
(60.0745 0.27447 -1.7201e-08)
(60.0971 0.2084 -3.333e-08)
(60.1113 0.12973 0.00021929)
(60.1179 0.044087 0.00022022)
(59.9336 0.039236 0.00014693)
(59.9434 0.11136 0.00014691)
(59.9604 0.16717 5.3792e-07)
(59.9804 0.20097 7.3159e-08)
(59.9999 0.21145 3.6831e-08)
(60.0167 0.2008 6.6419e-09)
(60.03 0.17288 -1.7034e-08)
(60.0394 0.13201 -3.3624e-08)
(60.0454 0.082508 0.0001465)
(60.0482 0.028087 0.00014682)
(59.9852 0.01843 5.4923e-08)
(59.9874 0.05261 4.4148e-08)
(59.9911 0.079375 -7.3306e-05)
(59.9955 0.095949 -7.3411e-05)
(59.9999 0.10149 -7.3432e-05)
(60.0037 0.096841 -7.3451e-05)
(60.0067 0.083702 -7.3466e-05)
(60.0089 0.064101 -7.3476e-05)
(60.0102 0.040151 -1.0103e-07)
(60.0108 0.013647 -3.9109e-08)
)
;

boundaryField
{
    bump
    {
        type             noSlip;
    }
    outlet
    {
        type             zeroGradient;
    }
    inlet
    {
        type             fixedValue;
        value            uniform (60 0 0);
    }
    side1
    {
        type             empty;
    }
    side2
    {
        type             empty;
    }
    symmetry
    {
        type             symmetry;
    }
    top
    {
        type             symmetry;
    }
}

// ************************************************************************* //
