/*--------------------------------*- C++ -*----------------------------------*\\
| =========                 |                                                 |
| \\      /  F ield         | OpenFOAM: The Open Source CFD Toolbox           |
|  \\    /   O peration     | Version:  v1706                                 |
|   \\  /    A nd           | Web:      www.OpenFOAM.com                      |
|    \\/     M anipulation  |                                                 |
\\*---------------------------------------------------------------------------*/
FoamFile
{
    version     2.0;
    format      ascii;
    class       surfaceScalarField;
    location    "0.25";
    object      mdot_f;
}
// * * * * * * * * * * * * * * * * * * * * * * * * * * * * * * * * * * * * * //

dimensions      [1 0 -1 0 0 0 0]


internalField   nonuniform List<scalar>
560
(
-0.00062487
-0.14157
-0.00081226
-0.14317
-0.0012117
-0.14513
-0.0015319
-0.14654
-0.0016135
-0.1474
-0.0015079
-0.14794
-0.001261
-0.1483
-0.00090861
-0.14856
-0.00047739
-0.14875
-0.14893
-0.00084183
-0.14073
-0.0012879
-0.14273
-0.001575
-0.14485
-0.0017274
-0.14639
-0.0017162
-0.14742
-0.0015582
-0.1481
-0.001282
-0.14857
-0.00091508
-0.14893
-0.00047941
-0.14919
-0.14941
-0.0010403
-0.13969
-0.00162
-0.14217
-0.001888
-0.14459
-0.0019645
-0.14633
-0.0018845
-0.14751
-0.001675
-0.14832
-0.0013584
-0.1489
-0.00096018
-0.14933
-0.00050136
-0.14966
-0.14992
-0.001245
-0.13845
-0.0019264
-0.14153
-0.0022003
-0.14435
-0.0022413
-0.14631
-0.0021102
-0.14766
-0.0018504
-0.14861
-0.001485
-0.14929
-0.0010408
-0.1498
-0.00054156
-0.15018
-0.15048
-0.0014679
-0.137
-0.0022588
-0.14081
-0.0025509
-0.14412
-0.0025774
-0.14634
-0.0024039
-0.14788
-0.0020863
-0.14897
-0.0016602
-0.14976
-0.0011555
-0.15034
-0.00059881
-0.15077
-0.1511
-0.0017193
-0.13532
-0.0026625
-0.13998
-0.0029988
-0.14387
-0.0030197
-0.14641
-0.0027956
-0.14818
-0.0023992
-0.14943
-0.001888
-0.15033
-0.0013018
-0.15098
-0.00067085
-0.15145
-0.1518
-0.002014
-0.13336
-0.0032278
-0.13892
-0.0036599
-0.14356
-0.0036548
-0.14653
-0.0033331
-0.14861
-0.0028091
-0.15004
-0.0021718
-0.15104
-0.0014756
-0.15174
-0.00075354
-0.15223
-0.15258
-0.0024413
-0.13101
-0.00422
-0.13734
-0.0047719
-0.14317
-0.0046193
-0.14682
-0.0040663
-0.14928
-0.0033178
-0.1509
-0.0024969
-0.15195
-0.0016621
-0.15265
-0.00083771
-0.15312
-0.15346
-0.0037128
-0.12741
-0.0064099
-0.13488
-0.0067319
-0.14303
-0.0060331
-0.14767
-0.0049869
-0.15047
-0.0038762
-0.15213
-0.0028127
-0.15312
-0.0018242
-0.15372
-0.00090411
-0.15412
-0.1544
-0.009626
-0.11793
-0.011192
-0.13356
-0.0097553
-0.14465
-0.0077758
-0.14981
-0.0059291
-0.15245
-0.0043514
-0.15382
-0.003029
-0.15454
-0.0019074
-0.15493
-0.00092681
-0.15517
-0.15537
0.021298
-0.13938
0.025005
-0.13749
0.025365
-0.14518
0.024042
-0.14863
0.02138
-0.14991
0.017841
-0.15039
0.01376
-0.15054
0.0093405
-0.15059
0.0047126
-0.15062
-0.15068
0.012681
-0.15219
0.017952
-0.14295
0.01925
-0.14662
0.018463
-0.14797
0.016521
-0.14808
0.013853
-0.14781
0.010721
-0.14749
0.0072932
-0.14723
0.003682
-0.14707
-0.14703
0.0072891
-0.15959
0.012113
-0.14792
0.013617
-0.14824
0.013247
-0.1477
0.011917
-0.14683
0.010022
-0.14599
0.0077715
-0.1453
0.0052924
-0.1448
0.0026707
-0.14449
-0.14438
0.0035556
-0.16324
0.0070844
-0.15155
0.0083367
-0.14958
0.0082617
-0.14769
0.0074838
-0.14611
0.0063111
-0.14487
0.0048997
-0.14393
0.0033377
-0.14328
0.001682
-0.14287
-0.1427
0.00059226
-0.16389
0.0025283
-0.15354
0.0033234
-0.15042
0.0034318
-0.14783
0.0031566
-0.14587
0.002677
-0.14441
0.0020817
-0.14336
0.0014183
-0.14263
0.00071278
-0.14218
-0.14199
-0.0018596
-0.16206
-0.0016071
-0.1538
-0.0014216
-0.15061
-0.0012621
-0.148
-0.0011022
-0.14603
-0.00092001
-0.14459
-0.00071281
-0.14356
-0.00048482
-0.14286
-0.00024628
-0.14242
-0.14222
-0.0041605
-0.15791
-0.0054898
-0.15243
-0.0059829
-0.15008
-0.0058708
-0.14808
-0.0053409
-0.14653
-0.004527
-0.14538
-0.0035247
-0.14454
-0.002402
-0.14396
-0.0012127
-0.14359
-0.14342
-0.006553
-0.15134
-0.0095016
-0.14942
-0.010744
-0.14879
-0.010684
-0.14809
-0.0097515
-0.14742
-0.0082601
-0.14683
-0.0064223
-0.14634
-0.0043726
-0.14597
-0.0022053
-0.14572
-0.1456
-0.0099526
-0.14135
-0.014788
-0.14449
-0.016507
-0.147
-0.016166
-0.14837
-0.01458
-0.14895
-0.012246
-0.14911
-0.0094685
-0.14908
-0.0064258
-0.14897
-0.0032348
-0.14887
-0.14881
-0.018727
-0.12256
-0.023825
-0.13928
-0.024336
-0.14641
-0.022747
-0.14989
-0.020004
-0.15163
-0.016566
-0.15249
-0.012703
-0.15289
-0.0085814
-0.15304
-0.0043118
-0.15309
-0.1531
0.01117
-0.13367
0.011995
-0.14
0.010574
-0.14491
0.0086839
-0.14792
0.0068383
-0.14972
0.005179
-0.15077
0.003713
-0.15136
0.0023963
-0.15168
0.0011825
-0.15183
-0.15189
0.0055708
-0.13917
0.0075755
-0.1419
0.0075447
-0.1448
0.00671
-0.14701
0.0055905
-0.14854
0.0044062
-0.14953
0.0032485
-0.15015
0.0021381
-0.15051
0.0010685
-0.15071
-0.1508
0.0031133
-0.14222
0.0048276
-0.14352
0.0052959
-0.1452
0.0050414
-0.14669
0.0044142
-0.14785
0.0036071
-0.14867
0.0027277
-0.14922
0.0018279
-0.14956
0.00092439
-0.14976
-0.14985
0.0018822
-0.14405
0.0031586
-0.14472
0.0037124
-0.14569
0.0037288
-0.14665
0.0034015
-0.14746
0.0028678
-0.14808
0.0022175
-0.14852
0.001509
-0.14881
0.0007717
-0.14898
-0.14906
0.0012012
-0.14521
0.0021156
-0.14556
0.0026079
-0.14612
0.0027278
-0.14672
0.00257
-0.14726
0.0022232
-0.14769
0.0017521
-0.14801
0.0012076
-0.14822
0.00062368
-0.14836
-0.14842
0.00079084
-0.14596
0.0014361
-0.14615
0.0018277
-0.14646
0.0019694
-0.14682
0.0019016
-0.14715
0.0016778
-0.14742
0.0013432
-0.14763
0.00093614
-0.14778
0.00048756
-0.14787
-0.14792
0.00052361
-0.14645
0.00097104
-0.14655
0.0012619
-0.14671
0.0013884
-0.1469
0.0013652
-0.14709
0.001222
-0.14724
0.00099013
-0.14737
0.00069649
-0.14745
0.00036589
-0.14751
-0.14754
0.0003368
-0.14676
0.00063526
-0.1468
0.00083653
-0.14687
0.000933
-0.14696
0.00092903
-0.14705
0.00084012
-0.14712
0.00068621
-0.14718
0.000486
-0.14722
0.0002576
-0.14725
-0.14726
0.00019783
-0.14693
0.00037868
-0.14694
0.00050232
-0.14696
0.0005641
-0.14699
0.00056561
-0.14702
0.00051441
-0.14704
0.00042211
-0.14706
0.00030019
-0.14707
0.00016024
-0.14708
-0.14709
9.0722e-05
0.0001693
0.00022412
0.00025089
0.00025069
0.00022724
0.00018597
0.00013141
6.7144e-05
)
;

boundaryField
{
    bump
    {
        type             calculated;
        value            uniform 0;
    }
    outlet
    {
        type             calculated;
        value            nonuniform List<scalar>
10
(
0.14834
0.1482
0.14807
0.14792
0.1477
0.14734
0.1467
0.14542
0.14346
0.14229
)
;
    }
    inlet
    {
        type             calculated;
        value            nonuniform List<scalar>
10
(
-0.147
-0.147
-0.147
-0.147
-0.147
-0.147
-0.147
-0.147
-0.147
-0.147
)
;
    }
    side1
    {
        type             calculated;
        value            uniform 0;
    }
    side2
    {
        type             calculated;
        value            uniform 0;
    }
    symmetry
    {
        type             calculated;
        value            uniform 0;
    }
    top
    {
        type             calculated;
        value            uniform 0;
    }
}

// ************************************************************************* //
