/*--------------------------------*- C++ -*----------------------------------*\\
| =========                 |                                                 |
| \\      /  F ield         | OpenFOAM: The Open Source CFD Toolbox           |
|  \\    /   O peration     | Version:  v1706                                 |
|   \\  /    A nd           | Web:      www.OpenFOAM.com                      |
|    \\/     M anipulation  |                                                 |
\\*---------------------------------------------------------------------------*/
FoamFile
{
    version     2.0;
    format      ascii;
    class       volScalarField;
    location    "0.25";
    object      p;
}
// * * * * * * * * * * * * * * * * * * * * * * * * * * * * * * * * * * * * * //

dimensions      [1 -1 -2 0 0 0 0]


internalField   nonuniform List<scalar>
300
(
19.4274
7.7152
7.2525
5.4543
0.90643
-3.5796
-7.5013
-10.6481
-12.933
-14.25
30.2519
11.6756
11.291
9.268
1.5516
-7.065
-14.9564
-21.4188
-26.0343
-28.4979
57.534
27.6998
20.5326
13.8279
0.56405
-13.5456
-26.091
-36.1739
-43.199
-46.7917
105.4214
57.752
36.1169
19.4259
-2.4643
-23.8103
-41.8402
-55.6971
-65.1194
-69.8543
179.5978
104.3167
57.7027
24.2961
-9.8441
-40.0819
-64.082
-81.5878
-93.0699
-98.6743
284.5562
167.8242
82.0056
23.9266
-25.78
-65.5019
-94.9669
-115.3607
-128.0952
-134.0645
417.8092
241.8546
99.5963
9.4506
-56.767
-104.2871
-136.8171
-157.9028
-170.4325
-176.0951
556.5083
303.7306
91.0118
-32.638
-110.5652
-160.3055
-191.1147
-209.3883
-219.4881
-223.73
621.7941
298.2801
24.8538
-117.4492
-192.7127
-234.115
-256.4084
-267.8171
-273.0843
-274.7845
386.286
126.0458
-129.9695
-249.85
-299.2897
-319.6883
-326.8276
-327.9712
-326.8944
-325.6191
-536.3522
-288.8868
-367.3947
-412.5327
-415.1777
-405.8899
-394.4118
-384.0433
-376.351
-372.1141
-1163.4397
-680.8548
-594.2987
-558.2404
-517.2747
-481.7338
-453.7502
-433.1979
-419.5896
-412.589
-1582.1111
-1013.9505
-798.5307
-688.0552
-605.4061
-545.3393
-502.2651
-472.5101
-453.5972
-444.1535
-1797.6932
-1238.965
-943.3942
-781.2771
-667.2631
-588.5445
-534.1998
-497.6672
-474.8965
-463.7368
-1809.5925
-1328.1472
-1003.52
-819.2692
-691.1163
-603.9365
-544.6287
-505.2384
-480.9217
-469.1056
-1610.7652
-1261.3938
-961.0245
-788.3683
-668.3024
-586.4375
-530.6256
-493.4784
-470.5287
-459.4005
-1186.6541
-1025.2702
-809.2562
-685.5049
-597.7072
-536.0769
-492.8422
-463.3445
-444.7765
-435.7078
-560.9393
-637.032
-565.843
-525.2859
-489.7811
-460.1701
-436.5448
-418.8765
-407.0372
-401.0575
139.8124
-190.5563
-293.5913
-346.7053
-367.6822
-372.7097
-370.6645
-366.3081
-362.2031
-359.7892
581.3105
118.4784
-93.5783
-203.0114
-260.6663
-290.7442
-305.8327
-312.8693
-315.769
-316.7498
278.2835
105.561
-37.3216
-131.8261
-191.9819
-229.4476
-252.2246
-265.5861
-272.8899
-276.2065
137.4218
60.9826
-26.7772
-98.1636
-150.35
-186.6494
-210.9782
-226.58
-235.8171
-240.227
57.37
19.199
-33.6941
-83.9652
-125.2682
-156.7732
-179.5297
-195.0568
-204.727
-209.4883
9.2997
-11.6692
-44.4355
-79.2395
-110.5767
-136.3486
-156.1437
-170.3199
-179.486
-184.1167
-20.8758
-33.3471
-54.4238
-78.6692
-102.0914
-122.5478
-139.0783
-151.3959
-159.5996
-163.8263
-40.4227
-48.3749
-62.5097
-79.7252
-97.2821
-113.3567
-126.886
-137.3129
-144.4279
-148.1426
-53.3336
-58.7544
-68.6985
-81.3035
-94.7001
-107.4292
-118.4873
-127.2401
-133.3268
-136.5334
-61.8191
-65.8068
-73.238
-82.905
-93.4957
-103.8568
-113.0792
-120.5192
-125.7521
-128.5081
-66.9809
-70.2035
-76.2268
-84.1861
-93.0851
-101.9697
-110.0179
-116.5967
-121.2454
-123.6723
-69.2287
-72.1518
-77.5923
-84.8407
-93.0253
-101.2751
-108.8128
-115.0121
-119.4006
-121.6634
)
;

boundaryField
{
    bump
    {
        type             zeroGradient;
    }
    outlet
    {
        type             fixedValue;
        value            uniform 0;
    }
    inlet
    {
        type             zeroGradient;
    }
    side1
    {
        type             empty;
    }
    side2
    {
        type             empty;
    }
    symmetry
    {
        type             symmetry;
    }
    top
    {
        type             symmetry;
    }
}

// ************************************************************************* //
