/*--------------------------------*- C++ -*----------------------------------*\\
| =========                 |                                                 |
| \\      /  F ield         | OpenFOAM: The Open Source CFD Toolbox           |
|  \\    /   O peration     | Version:  v1706                                 |
|   \\  /    A nd           | Web:      www.OpenFOAM.com                      |
|    \\/     M anipulation  |                                                 |
\\*---------------------------------------------------------------------------*/
FoamFile
{
    version     2.0;
    format      ascii;
    class       volVectorField;
    location    "0.25";
    object      U;
}
// * * * * * * * * * * * * * * * * * * * * * * * * * * * * * * * * * * * * * //

dimensions      [0 1 -1 0 0 0 0]


internalField   nonuniform List<vector>
300
(
(58.0787 -0.57517 0.00070777)
(58.5567 0.10044 0.00060444)
(59.3533 -0.17816 -7.1292e-05)
(59.8762 -0.51048 -0.00012689)
(60.137 -0.5878 -0.00014502)
(60.2842 -0.59773 -0.00013769)
(60.3746 -0.53918 -0.00011019)
(60.4386 -0.42793 -3.9633e-05)
(60.4908 -0.27971 0.00079904)
(60.5478 -0.10134 0.00085814)
(57.363 -0.71044 0.00089757)
(58.1755 0.029177 0.00073567)
(59.0465 -0.26695 5.2371e-05)
(59.6674 -0.59255 -3.3091e-05)
(60.0641 -0.62934 -6.7121e-05)
(60.3247 -0.61577 -6.7495e-05)
(60.5055 -0.54558 -4.2352e-05)
(60.6408 -0.42874 3.0377e-05)
(60.7454 -0.27917 0.00086757)
(60.8359 -0.10158 0.00093382)
(56.9024 -0.87095 0.001012)
(57.9088 -0.031754 0.00076781)
(58.8845 -0.31261 6.2396e-05)
(59.5779 -0.67562 -6.4642e-05)
(60.0481 -0.70025 -0.00012145)
(60.3733 -0.66719 -0.00013396)
(60.6069 -0.58216 -0.00011429)
(60.7837 -0.45296 -4.1635e-05)
(60.9187 -0.29238 0.0007917)
(61.0284 -0.10621 0.0008644)
(56.2976 -1.0717 0.0013003)
(57.5577 -0.13374 0.00094152)
(58.7045 -0.36115 0.00019319)
(59.5009 -0.77502 8.574e-06)
(60.0544 -0.80222 -8.0906e-05)
(60.4481 -0.75214 -0.00011227)
(60.7352 -0.64741 -0.0001031)
(60.9514 -0.49872 -3.4415e-05)
(61.1155 -0.31939 0.000792)
(61.243 -0.11553 0.00086959)
(55.5264 -1.3353 0.0017207)
(57.1183 -0.3299 0.0012071)
(58.4982 -0.4507 0.00038792)
(59.4296 -0.91113 0.00012517)
(60.0851 -0.9464 -9.9691e-06)
(60.5552 -0.87559 -6.9216e-05)
(60.8981 -0.74233 -7.7476e-05)
(61.1536 -0.56562 -1.843e-05)
(61.3436 -0.3589 0.00079683)
(61.4856 -0.12865 0.00087669)
(54.5422 -1.6963 0.0023111)
(56.566 -0.69395 0.0015936)
(58.261 -0.63082 0.00066682)
(59.3709 -1.115 0.00029967)
(60.1541 -1.1513 0.000102)
(60.7101 -1.0463 2.9605e-06)
(61.1109 -0.87163 -3.2069e-05)
(61.4024 -0.65408 9.5578e-06)
(61.6134 -0.40897 0.00080793)
(61.7661 -0.14475 0.00088616)
(53.278 -2.2031 0.0031128)
(55.8611 -1.3349 0.0021342)
(57.9995 -0.98 0.0010535)
(59.3523 -1.4316 0.000549)
(60.2924 -1.4414 0.00026726)
(60.9424 -1.2743 0.0001131)
(61.3949 -1.0355 3.92e-05)
(61.7111 -0.76093 5.3252e-05)
(61.9336 -0.46805 0.00082725)
(62.0898 -0.16359 0.00089847)
(51.6165 -2.9257 0.0041684)
(54.9637 -2.4235 0.0028662)
(57.7624 -1.6274 0.0015745)
(59.4471 -1.924 0.0008917)
(60.5622 -1.8424 0.00049892)
(61.2939 -1.5627 0.00027041)
(61.775 -1.226 0.00014256)
(62.0948 -0.87693 0.00011647)
(62.311 -0.52868 0.00085668)
(62.4582 -0.18196 0.000914)
(49.3994 -4.0023 0.0055177)
(53.948 -4.2819 0.0038308)
(57.7233 -2.7861 0.0022585)
(59.8018 -2.6596 0.0013465)
(61.0524 -2.3528 0.00080918)
(61.8077 -1.8878 0.00048303)
(62.2676 -1.4193 0.00028331)
(62.5543 -0.98341 0.00020239)
(62.7393 -0.57827 0.00089759)
(62.8643 -0.19566 0.00093287)
(48.118 -5.7595 0.0072161)
(53.5767 -7.554 0.005091)
(58.2884 -4.6843 0.003148)
(60.5983 -3.6228 0.0019408)
(61.8204 -2.8992 0.0012162)
(62.4851 -2.1835 0.00076308)
(62.8521 -1.5675 0.00046906)
(63.0617 -1.0503 0.00031569)
(63.1916 -0.6032 0.00095188)
(63.2836 -0.20153 0.00095527)
(55.1885 -7.8678 0.0092325)
(56.7366 -11.759 0.0065098)
(60.6553 -7.0938 0.0041272)
(62.3399 -4.6289 0.0025952)
(63.0746 -3.3545 0.0016686)
(63.4159 -2.381 0.0010794)
(63.565 -1.6363 0.00068237)
(63.628 -1.0618 0.00044717)
(63.6622 -0.59719 0.0010143)
(63.697 -0.19809 0.00098054)
(64.4132 -6.6411 0.011118)
(61.2542 -11.8362 0.0080113)
(63.4599 -6.9435 0.0050183)
(64.2065 -4.2555 0.003164)
(64.3471 -2.9943 0.0020382)
(64.3102 -2.0773 0.0013238)
(64.2228 -1.4042 0.00084616)
(64.1394 -0.90043 0.00055745)
(64.086 -0.50209 0.0011008)
(64.0753 -0.16422 0.00099978)
(70.3499 -4.0289 0.012379)
(65.1912 -9.4453 0.0087914)
(65.8439 -5.8548 0.0054028)
(65.7418 -3.3625 0.0034008)
(65.3999 -2.3097 0.0021836)
(65.0568 -1.5612 0.0014178)
(64.7715 -1.0345 0.00091301)
(64.5614 -0.6537 0.00060864)
(64.43 -0.36051 0.0011418)
(64.3791 -0.11514 0.0009964)
(73.9705 -0.9105 0.012268)
(68.3437 -5.6009 0.0083843)
(67.7033 -4.0316 0.0051006)
(66.8955 -2.0311 0.0032343)
(66.1665 -1.3538 0.0020994)
(65.5853 -0.86932 0.001375)
(65.1488 -0.55008 0.00088997)
(64.8422 -0.33366 0.00060291)
(64.6515 -0.17764 0.0011363)
(64.5698 -0.05301 0.00097329)
(75.5333 2.245 0.011486)
(70.279 -1.096 0.0072592)
(68.7957 -1.672 0.0043429)
(67.5309 -0.40205 0.0027576)
(66.5554 -0.20474 0.0017968)
(65.8287 -0.054945 0.0011764)
(65.3029 0.012987 0.0007583)
(64.9406 0.035351 0.00052576)
(64.7161 0.032808 0.0010748)
(64.6159 0.017843 0.00092929)
(75.1224 5.1121 0.0109)
(70.7932 3.4415 0.0063653)
(68.9862 1.0059 0.0036652)
(67.5583 1.3491 0.0022943)
(66.5095 1.0281 0.0014766)
(65.7485 0.80482 0.00095292)
(65.2068 0.60283 0.00060419)
(64.8361 0.42024 0.0004314)
(64.606 0.25195 0.0009882)
(64.5008 0.091257 0.00087621)
(72.682 7.3929 0.0097949)
(69.6398 7.3925 0.0055599)
(68.1308 3.6683 0.0030474)
(66.9024 3.0333 0.0018585)
(66 2.2127 0.0011712)
(65.3389 1.6213 0.00073938)
(64.8632 1.1577 0.00045771)
(64.5344 0.77982 0.00033931)
(64.3269 0.45547 0.00089518)
(64.2291 0.15897 0.00082043)
(68.0549 8.7048 0.0068233)
(66.7844 10.1657 0.0039622)
(66.1853 5.8473 0.0020792)
(65.5515 4.3816 0.0012607)
(65.0351 3.1597 0.00080563)
(64.6194 2.2774 0.00051221)
(64.2963 1.6058 0.00031495)
(64.0596 1.071 0.00024767)
(63.9036 0.62025 0.00080756)
(63.8262 0.21322 0.00076526)
(61.1996 8.6222 0.002982)
(62.464 11.0282 0.0019354)
(63.3978 6.9946 0.00098338)
(63.7126 5.0813 0.0006366)
(63.7624 3.6824 0.00044619)
(63.6911 2.6631 0.00029816)
(63.5781 1.8837 0.00018507)
(63.4671 1.2584 0.00015879)
(63.3825 0.72867 0.00072634)
(63.3352 0.24869 0.000712)
(53.6832 6.622 0.00085765)
(58.0579 9.1548 0.00077316)
(60.6471 6.5814 0.00031273)
(61.8922 4.9187 0.00021599)
(62.4768 3.6845 0.00017083)
(62.7321 2.7292 0.00012095)
(62.823 1.9631 7.6463e-05)
(62.8371 1.325 7.5122e-05)
(62.8244 0.77101 0.00065292)
(62.8095 0.26142 0.00066186)
(52.5229 2.588 0.00058531)
(56.8951 4.9121 0.00061192)
(59.3452 4.819 0.00011556)
(60.7208 4.0703 4.0943e-05)
(61.4861 3.2624 2.9651e-05)
(61.9018 2.5204 2.2518e-05)
(62.1196 1.8643 1.5865e-05)
(62.2252 1.2818 1.1245e-05)
(62.2716 0.75363 0.00059533)
(62.2883 0.25348 0.00061929)
(55.8932 1.2456 0.00057523)
(57.6135 2.8043 0.00056752)
(59.1193 3.2158 5.6181e-05)
(60.1707 3.018 8.4065e-06)
(60.8583 2.5938 5.4056e-06)
(61.287 2.1027 5.2281e-06)
(61.544 1.6085 5.1773e-06)
(61.6899 1.1326 5.1351e-06)
(61.7657 0.67598 0.00055619)
(61.7977 0.22833 0.00057749)
(57.5424 0.68144 0.00052841)
(58.3088 1.6918 0.00052468)
(59.2003 2.1488 3.6362e-05)
(59.9395 2.1879 6.4727e-06)
(60.4833 1.9955 5.1039e-06)
(60.8558 1.6888 5.009e-06)
(61.0975 1.332 4.9544e-06)
(61.2464 0.95841 4.9042e-06)
(61.33 0.58029 0.000514)
(61.3669 0.19695 0.00052976)
(58.4933 0.40616 0.00047575)
(58.8692 1.0699 0.00047391)
(59.3856 1.4548 2.3599e-05)
(59.873 1.5722 5.2576e-06)
(60.2673 1.5028 4.6329e-06)
(60.5588 1.3189 4.5668e-06)
(60.7595 1.0681 4.5111e-06)
(60.8897 0.78284 4.4585e-06)
(60.9668 0.48016 0.00046551)
(61.002 0.16386 0.00047659)
(59.0781 0.25659 0.00041775)
(59.273 0.70066 0.00041686)
(59.5709 0.99627 1.5226e-05)
(59.8792 1.1235 4.2637e-06)
(60.1468 1.113 3.9715e-06)
(60.3568 1.0053 3.9155e-06)
(60.5086 0.83244 3.8613e-06)
(60.6104 0.61959 3.8107e-06)
(60.6728 0.38393 0.00041091)
(60.7023 0.13158 0.00041826)
(59.4524 0.1676 0.00035502)
(59.5556 0.46766 0.0003546)
(59.7243 0.68433 9.5653e-06)
(59.9108 0.79523 3.2998e-06)
(60.081 0.80884 3.1535e-06)
(60.2204 0.74668 3.1016e-06)
(60.3252 0.62936 3.0508e-06)
(60.3974 0.47456 3.005e-06)
(60.4426 0.29651 0.00035075)
(60.4643 0.10195 0.00035527)
(59.6957 0.11008 0.00028829)
(59.7494 0.31162 0.00028811)
(59.8403 0.46452 5.6586e-06)
(59.9455 0.55081 2.3401e-06)
(60.045 0.571 2.2557e-06)
(60.1287 0.5355 2.2066e-06)
(60.1933 0.45721 2.1606e-06)
(60.239 0.34827 2.1211e-06)
(60.2682 0.21934 0.00028584)
(60.2824 0.075739 0.00028835)
(59.8524 0.070141 0.00021849)
(59.8777 0.20091 0.00021841)
(59.9217 0.30326 2.9949e-06)
(59.974 0.36419 1.4464e-06)
(60.0248 0.38253 1.3875e-06)
(60.068 0.36278 1.3418e-06)
(60.1017 0.31244 1.3014e-06)
(60.1259 0.23957 1.2689e-06)
(60.1418 0.15183 0.00021721)
(60.1498 0.052671 0.00021841)
(59.9464 0.040722 0.0001466)
(59.9547 0.11794 0.00014657)
(59.9714 0.17961 1.3002e-06)
(59.9916 0.21713 7.188e-07)
(60.0113 0.22973 6.7122e-07)
(60.0281 0.21936 6.3044e-07)
(60.0412 0.18998 5.9631e-07)
(60.0507 0.14622 5.7025e-07)
(60.0572 0.093039 0.00014601)
(60.0617 0.032401 0.00014643)
(59.9899 0.018261 5.6192e-08)
(59.9908 0.052363 4.6855e-08)
(59.9943 0.079255 -7.3099e-05)
(59.9986 0.095824 -7.3233e-05)
(60.0027 0.10133 -7.3258e-05)
(60.0062 0.096707 -7.328e-05)
(60.0089 0.083736 -7.3297e-05)
(60.0109 0.064377 -7.331e-05)
(60.0124 0.040347 -1.3616e-07)
(60.0141 0.013654 -5.4193e-08)
)
;

boundaryField
{
    bump
    {
        type             noSlip;
    }
    outlet
    {
        type             zeroGradient;
    }
    inlet
    {
        type             fixedValue;
        value            uniform (60 0 0);
    }
    side1
    {
        type             empty;
    }
    side2
    {
        type             empty;
    }
    symmetry
    {
        type             symmetry;
    }
    top
    {
        type             symmetry;
    }
}

// ************************************************************************* //
