/*--------------------------------*- C++ -*----------------------------------*\\
| =========                 |                                                 |
| \\      /  F ield         | OpenFOAM: The Open Source CFD Toolbox           |
|  \\    /   O peration     | Version:  v1706                                 |
|   \\  /    A nd           | Web:      www.OpenFOAM.com                      |
|    \\/     M anipulation  |                                                 |
\\*---------------------------------------------------------------------------*/
FoamFile
{
    version     2.0;
    format      ascii;
    class       surfaceScalarField;
    location    "0.4";
    object      mdot_f;
}
// * * * * * * * * * * * * * * * * * * * * * * * * * * * * * * * * * * * * * //

dimensions      [1 0 -1 0 0 0 0]


internalField   nonuniform List<scalar>
906
(
-0.024997
0.018298
0.0038557
0.0028426
-0.0046051
-0.019439
-0.00095219
-0.030436
0.03417
0.019579
-0.023312
0.03536
-0.031924
-0.033872
0.0056885
0.064677
-0.06383
-0.0065355
0.0027878
-0.065088
0.067989
-0.038669
0.036788
-0.0016176
0.0034978
-0.0226
0.015823
-0.031892
-0.069983
0.043384
-0.0089768
0.035576
-0.0021115
0.0018531
-0.069724
0.055563
-0.011044
0.013615
-0.058135
0.015902
-0.0056816
0.045342
-0.024148
-0.017624
0.0082266
0.033545
-0.029632
0.035283
-0.0298
0.04647
-0.011425
0.075511
-0.063906
0.0042979
0.00023918
0.071772
0.0034996
-0.0049781
-0.069972
0.021344
-0.014083
-0.0072607
-0.0029417
0.024285
0.014597
-0.021525
-0.0071549
0.036904
-0.01924
0.016996
-0.034659
0.039565
0.028571
-0.031233
0.038005
-0.021852
-0.029245
0.013092
0.041905
0.025701
-0.029601
0.032487
-0.0098222
-0.02067
0.01982
0.044233
-0.067628
0.052991
-0.0060331
-0.067546
-0.0021933
-0.0028869
0.0046837
0.018894
-0.020691
0.0054885
0.0028575
-0.011233
0.04941
-0.031663
0.024279
-0.042025
0.051564
0.011461
-0.050233
0.01223
0.011557
-0.040993
0.064145
0.012208
-0.025959
-0.041116
0.026082
-0.041029
-0.016854
0.0086298
0.044964
-0.0096941
-0.0439
0.035582
-0.0036627
-0.023289
0.0023578
0.037908
0.058027
-0.010705
0.036189
0.0097053
-0.019598
-0.0072037
0.017097
-0.017501
0.024935
0.0022719
-0.02321
-0.013889
-0.0036531
0.058328
0.0094705
0.023241
0.00018904
-0.030634
0.020897
0.019441
0.047033
0.0070216
-0.0075845
-0.041133
0.046527
0.015502
0.0060895
0.0027051
0.0027057
0.0028971
-0.041221
-0.024375
0.00056501
-0.010063
-0.048394
0.026917
0.034743
0.0096328
0.0090243
0.040351
0.0019543
-0.013494
0.041772
0.0024081
-0.0022687
-0.0048925
0.0063484
0.041975
0.00080769
0.0085243
-0.039029
0.012076
0.042776
0.0074035
0.021641
0.0051379
0.043078
-0.0019424
-0.046274
0.039691
0.0022351
0.0011002
0.042972
-0.00099414
0.039149
0.0016425
0.00090668
0.04251
-0.00044478
0.038823
0.0012328
0.00039449
0.042356
-0.00024054
0.03889
0.0003275
0.0003692
0.042207
-0.00022003
0.038962
0.00029675
-8.0996e-05
0.042494
-0.00020577
0.039152
-0.0002706
-8.2928e-05
0.04236
0.00021715
0.039345
-0.00027607
-3.4004e-05
0.042679
-0.00028529
0.039683
-0.00037171
-4.8245e-05
-3.9235e-05
0.042766
0.039585
4.952e-05
-0.069366
0.0064705
0.065683
0.0054511
-0.066241
-0.0042986
-0.067622
0.0037069
0.0034645
-0.0037746
-0.065931
0.0026789
-0.066836
-0.0644
-0.0037281
-0.065255
-0.0029199
0.063689
0.0017416
0.068438
0.0073266
0.063578
0.0029178
0.062073
0.00051053
0.061179
0.00044937
0.060759
0.00017932
0.060297
0.0002417
0.060362
-0.00026998
0.060816
-0.00023703
0.060896
-0.0003653
0.060583
0.00027345
0.070826
-0.00020747
-0.00020192
0.039994
-0.0001023
0.042661
-0.00066784
0.061149
-0.068049
0.068588
0.003168
-0.067394
0.0020239
-0.0020579
0.0014031
-0.066739
-0.0024264
-0.066468
-0.0023178
-0.066039
-0.06585
-0.0017224
0.069554
0.010415
0.064093
0.0038427
0.064286
0.0020423
0.063708
0.0022206
0.063393
0.0015483
0.062975
0.00074536
0.062831
0.00044079
0.06315
-0.00059
0.063577
-0.00070337
0.063229
-2.3451e-05
0.062957
0.00032176
-0.00063286
0.063388
0.072807
0.07477
0.0053633
0.074463
0.0032247
0.072856
0.0021181
0.072246
0.0010591
0.071822
0.0006034
0.071656
0.00040796
0.07164
-0.00025405
0.071631
-0.0002282
0.071049
0.00021644
0.07144
-0.00011728
0.07171
-0.00093795
0.0056793
0.069379
0.057078
-0.077031
0.021807
0.0088513
0.039249
-0.070009
-0.0013432
-0.067969
0.0011285
-0.0674
0.0014542
-0.066798
0.00080115
-0.0010461
0.00063556
-0.066387
-0.0014114
-0.066374
-0.0015944
-0.066285
-0.0011015
-0.066532
-0.00085186
-0.0661
0.06571
-0.066376
-0.00018506
0.065
-0.0010131
0.064049
-0.0019691
0.063721
-0.0033999
0.061214
-0.0040284
0.055143
-0.0053538
0.050215
-0.0026572
0.052621
0.0036833
0.050665
0.0046623
0.06646
0.010287
0.067023
0.0089074
0.071357
0.00608
0.071561
0.0036388
0.070582
0.0030214
0.071121
0.0016819
0.071221
0.0014486
0.071428
0.00053814
0.071467
0.00040203
0.071651
-0.00077479
0.071778
-0.00083016
0.071521
0.00023408
0.07152
0.0003222
0.071623
-0.00073622
0.0004541
-0.00038444
0.071554
0.00034198
0.0635
0.00029018
0.040046
-0.00013931
0.043091
-0.00011617
0.061125
0.071571
2.2822e-05
-0.0041247
0.042314
0.013485
0.048074
0.045789
0.037075
0.036129
0.031467
0.023066
0.021914
0.027327
0.034989
0.028003
0.034901
-0.070077
-0.00099087
-0.068698
-0.00024981
-0.067729
0.00048473
-0.067269
0.00034089
-0.066918
0.00028471
-0.00085883
-0.06623
0.00017057
-0.00058356
-0.066662
-0.00033302
-0.066625
-1.732e-05
-0.0666
4.5851e-05
-0.066596
0.00021575
-0.06627
0.00041711
-0.066578
0.0661
-0.066587
0.00090429
0.06575
0.00016486
0.065239
-0.00050139
0.064925
-0.0016555
0.063729
-0.0022043
0.062536
-0.002835
0.059662
-0.0024797
0.057745
-0.00074018
0.057082
0.0043458
0.060986
0.00075889
0.066321
0.0049525
0.070042
0.0051861
0.072095
0.0040267
0.07267
0.0030645
0.073629
0.0020624
0.073527
0.0017837
0.073763
0.0012122
0.074253
4.8566e-05
0.075219
-0.00056406
0.074516
-7.1991e-05
0.074208
-0.00052205
0.074677
-0.00023446
0.074359
0.00063985
0.073647
-2.4223e-05
0.07419
-0.00092712
0.00049317
-0.00014405
0.07384
0.0003896
0.071657
0.00020771
0.063682
-1.3421e-05
0.040267
-3.1267e-05
0.043109
8.5506e-05
0.061009
-0.00022136
0.071878
-0.074489
-0.00014743
0.074415
-0.073625
-0.00084192
-0.074516
-4.681e-05
-0.074568
-6.5167e-05
-0.074265
-8.6562e-05
-0.074378
-0.0001155
-0.074473
-0.0001585
-0.07451
0.00044493
-0.07464
0.00073285
-0.074859
0.0012781
-0.074947
0.0022068
-0.074598
0.0028751
0.0025376
-0.036551
-0.0028186
0.06687
-0.065917
-0.005931
0.069779
0.0013885
0.071519
0.0017595
0.072305
0.0017517
0.073683
0.0014973
0.074692
0.0011972
0.074772
0.0011988
0.075208
0.00029638
0.075763
-0.00010975
0.075687
-8.2671e-05
0.075632
-6.084e-05
0.075591
-4.5092e-05
0.075559
-3.3733e-05
0.075538
-2.5134e-05
0.074714
-1.8387e-05
0.074581
-1.4627e-05
-0.00013104
0.00057977
-0.066678
-0.00012792
-0.066665
-9.9122e-05
-0.066653
-5.3866e-05
-0.066646
-5.3084e-06
-0.066644
0.00037359
-0.066649
0.00045325
-0.066657
0.00053316
-0.066667
0.066531
0.00067761
-0.066676
0.06738
5.5064e-05
0.067449
9.6389e-05
0.066784
0.0001636
0.065798
-0.00066984
0.0647
-0.0011064
0.062623
-0.00075741
0.060872
-0.00072894
0.060342
-0.00020988
0.063163
0.0015246
0.06325
0.00067167
0.066045
0.0021576
0.069004
0.0022271
0.071223
0.0018072
0.073048
0.0012402
0.073761
0.0013495
0.07477
0.00077399
0.076069
-8.6183e-05
0.076189
-7.202e-05
0.07568
-5.4402e-05
0.075646
-3.7943e-05
0.075149
-2.4909e-05
0.074931
-1.7126e-05
0.075586
-1.4816e-05
0.075573
-1.1583e-05
0.074653
-6.3793e-06
0.074513
-4.2685e-06
0.00041609
-0.0005089
0.074606
1.3957e-05
0.074243
2.2941e-05
0.071648
2.0784e-05
0.063684
-5.9844e-06
0.040294
-2.8526e-05
0.043131
-0.00056722
0.061547
-0.0004653
0.071776
-0.00055062
0.074501
0.074042
-1.131e-05
-0.0011724
0.025863
0.014355
0.032546
0.019959
0.031471
0.022763
0.028662
0.018567
0.02611
0.02329
0.030266
0.022062
0.029231
0.022759
0.031962
0.0088853
0.035935
-0.0022438
0.043091
-0.0032952
0.045285
0.050793
-0.0010969
-0.068062
-0.00047506
-0.067979
-0.0003331
-0.067455
-3.8984e-05
-0.06714
2.6379e-05
-0.066775
-8.1205e-05
-0.066817
0.00021286
0.00045188
-0.066689
-0.017858
0.053128
0.015523
-0.0087971
-0.015557
0.0068016
-0.0080227
0.0020288
-0.013228
-0.010114
-0.028732
-0.042554
0.046008
-0.018582
0.021612
-0.034401
-0.026226
-0.00069275
-0.0060182
-0.042341
-0.018385
-0.023575
-0.03666
-0.027695
-0.028556
-0.0367
-0.033336
-0.025093
-0.016033
0.040543
-0.019124
0.039026
-0.020051
0.030158
-0.018646
0.02886
-0.017733
0.025197
-0.013367
0.024296
-0.0082714
0.026376
-0.0036741
0.027949
0.030415
0.032889
0.0026105
-0.026895
-0.026188
-0.0067924
-0.019894
-0.011703
-0.032529
-0.024026
0.039089
-0.023639
-0.045983
0.0034999
0.032494
-0.026741
-0.027295
0.036753
-0.021366
0.036253
-0.026242
0.029741
-0.02095
-0.026101
0.0052868
0.027739
0.02633
-0.01842
-0.021623
0.0091719
0.024064
0.012163
0.023385
-0.00057839
-0.01573
0.022507
0.020729
-0.016598
0.017482
0.0048507
0.018635
0.011282
0.016954
0.015414
-0.020829
0.0090668
0.0032004
0.0082795
0.01326
0.0068943
0.0078442
0.067358
-0.06668
0.067413
0.067509
0.067673
0.067003
0.065897
0.065139
0.06441
0.0642
0.065725
0.066397
0.068554
0.070782
0.072589
0.073829
0.075178
0.075952
0.075866
0.075794
0.07574
0.075702
0.075677
0.07566
0.075645
0.075633
0.075627
0.075623
0.075114
0.0002246
1.5336e-05
9.092e-06
2.1363e-05
1.4158e-05
-1.2914e-05
-2.5275e-05
-4.0803e-05
-2.5903e-05
-2.2154e-05
-0.00073549
-0.075414
-0.075426
-0.07544
-0.075459
-0.075484
-0.075518
-0.075563
-0.075624
-0.075706
-0.075816
-0.07552
-0.074321
-0.073124
-0.071626
-0.069875
-0.068115
-0.066727
-0.072658
-0.057134
-0.058231
-0.064264
-0.066458
-0.066933
-0.067266
-0.067305
-0.067278
-0.067359
-0.067147
-0.066695
-2.808e-05
-5.0361e-05
-6.2032e-05
-6.0741e-05
-4.753e-05
-2.6612e-05
-4.0587e-06
1.3932e-05
2.3272e-05
2.2606e-05
1.3576e-05
0.015757
-0.0079131
0.024824
0.037916
0.028093
0.031593
0.0075676
-0.0041354
-0.0021066
0.0042419
0.0019732
-0.021339
-0.020774
-0.023592
0.0010188
)
;

boundaryField
{
    bottom
    {
        type             calculated;
        value            uniform 0;
    }
    inlet
    {
        type             calculated;
        value            nonuniform List<scalar>
12
(
-0.066667
-0.066667
-0.066667
-0.066667
-0.066667
-0.066667
-0.066667
-0.066667
-0.066667
-0.066667
-0.066667
-0.066667
)
;
    }
    object
    {
        type             calculated;
        value            uniform 0;
    }
    outlet
    {
        type             calculated;
        value            nonuniform List<scalar>
12
(
0.074889
0.074679
0.074755
0.074497
0.071761
0.061563
0.043144
0.040321
0.063691
0.071636
0.074249
0.074815
)
;
    }
    side1
    {
        type             calculated;
        value            uniform 0;
    }
    side2
    {
        type             calculated;
        value            uniform 0;
    }
    top
    {
        type             calculated;
        value            uniform 0;
    }
}

// ************************************************************************* //
