/*--------------------------------*- C++ -*----------------------------------*\\
| =========                 |                                                 |
| \\      /  F ield         | OpenFOAM: The Open Source CFD Toolbox           |
|  \\    /   O peration     | Version:  v1706                                 |
|   \\  /    A nd           | Web:      www.OpenFOAM.com                      |
|    \\/     M anipulation  |                                                 |
\\*---------------------------------------------------------------------------*/
FoamFile
{
    version     2.0;
    format      ascii;
    class       volScalarField;
    location    "0.4";
    object      p;
}
// * * * * * * * * * * * * * * * * * * * * * * * * * * * * * * * * * * * * * //

dimensions      [0 2 -2 0 0 0 0]


internalField   nonuniform List<scalar>
479
(
-14.759
-23.0075
-20.1302
-11.2676
14.6718
15.3368
1.7232
0.55506
10.2003
11.2501
-7.0496
-6.4077
19.1282
16.9358
15.3008
-4.0838
-4.0074
-3.3914
49.9011
28.2496
34.0518
-12.5979
-10.6298
-2.4496
-9.2686
-20.0812
8.4352
8.2708
9.9761
-8.8769
-15.1053
-10.6029
-11.1795
-8.6465
-6.5637
-9.7258
-5.7642
-10.5306
-10.7605
-11.26
-7.0633
-7.132
-9.7433
14.391
15.6083
16.9426
-7.9654
14.3713
10.052
14.4498
6.0467
11.8927
0.26622
-7.2633
-23.6479
-16.0602
6.0743
-1.638
17.3763
17.247
-13.9923
-35.521
-30.1708
-10.1895
-23.6825
-2.9954
0.48555
-2.8456
-5.0916
0.9129
1.1805
0.47114
0.60564
0.31737
0.38356
0.21037
0.32651
0.1198
0.20958
0.063704
0.13324
0.0099567
0.077313
0.02359
0.067692
0.0053133
0.021892
15.1192
14.5202
14.4053
14.0009
13.9205
14.1646
13.8169
-4.0118
-2.328
-0.60977
-0.15779
-0.15654
-0.12674
-0.079674
-0.030076
-0.037303
0.00071911
-0.02575
-6.3856
0.0087452
0.0025731
0.010676
13.9473
13.6115
13.4015
13.6101
13.6738
13.5814
-6.2666
-0.72671
0.34907
0.088756
-0.045037
0.046103
0.050998
0.07739
0.070758
0.041992
-0.026243
0.01252
-4.5202
-3.3708
-2.0557
-1.1724
-0.76707
-0.53606
-0.37349
-0.23986
-0.16966
-0.11854
-0.11128
-0.052836
14.4791
13.2305
12.5326
13.2242
13.1721
13.122
13.0882
13.0685
13.2734
13.417
13.4697
13.4281
13.3205
13.3872
13.4727
13.5607
13.5868
13.3192
12.0282
8.7324
2.8021
-2.4725
-5.6019
-5.1335
-2.4238
-0.90988
-0.55197
-0.4598
-0.30381
-0.18974
-0.089689
-0.0564
-0.074562
-0.089424
-0.035388
-0.016674
0.043
0.028175
0.012475
0.020218
-0.050893
16.5507
16.1977
15.4427
14.7504
14.0265
11.6843
9.6499
11.9543
12.3542
12.599
12.754
12.8514
12.9125
13.0583
13.1982
13.3005
13.346
13.3319
13.2742
13.1977
13.1895
13.1651
13.1021
12.9529
12.6176
11.8951
10.3953
7.6738
3.6609
-0.28995
-2.7503
-3.0872
-2.0347
-1.0168
-0.55627
-0.39224
-0.26298
-0.15005
-0.062152
-0.025966
-0.024215
-0.018422
0.0081211
0.019177
0.017561
-0.018675
0.037636
0.04692
0.018227
0.0043735
-0.046712
-0.029672
-0.049856
-0.066905
-0.11522
-0.16307
-0.22827
-0.33174
-0.48711
-0.68823
-0.98168
-1.4663
-2.2565
-3.2412
-10.5762
-1.1261
-2.5022
-3.0247
-2.7502
-2.1519
-1.5739
-1.142
-0.84176
-0.62342
-0.45575
-0.33143
-0.24239
-0.17625
-0.12558
-0.08954
-0.062151
12.9475
13.054
13.1575
13.2365
13.2774
13.2777
13.2466
13.2002
13.1569
13.1293
13.076
12.9784
12.8032
12.4925
11.9513
11.0219
9.4958
7.1967
4.1737
1.117
-1.0157
-1.8253
-1.625
-1.0993
-0.72264
-0.53183
-0.4054
-0.29445
-0.20691
-0.14924
-0.11568
-0.09288
-0.068553
-0.047299
-0.037582
-0.030666
0.011607
-0.032112
0.0097937
0.036247
0.016804
0.027435
-0.0090377
-0.0063852
-0.038733
18.3388
18.023
17.5327
16.5442
15.1657
12.245
9.5062
8.0677
7.4421
6.3522
6.2535
5.789
11.0622
11.7525
12.1995
12.4908
12.6776
12.7945
12.8608
2.8887
-14.1679
-30.1576
-20.8722
-13.93
-12.3048
3.6765
0.1423
4.3109
-1.9745
-18.0302
-9.1768
-4.8026
-1.6066
1.1446
4.2032
5.5055
8.4929
12.4553
16.4104
18.9321
20.3862
21.0778
21.0818
20.3882
22.1098
22.687
22.0183
-28.8067
-13.5352
1.632
-9.5825
-23.7026
-1.4768
-5.7009
2.6758
-1.3996
-7.1549
5.8476
0.61238
23.8395
11.4554
8.2159
25.2597
24.4762
27.3856
17.7662
22.1698
18.8527
30.7674
30.4211
26.8339
17.1289
39.4434
39.1796
33.2373
13.1316
13.0899
13.011
12.8728
12.6377
12.245
11.6057
10.6004
9.093
7.0092
4.4006
1.7786
-0.2117
-1.2068
-1.3343
-1.0411
-0.72724
-0.52346
-0.38954
-0.28078
-0.19174
-0.12759
-0.086881
-0.06103
-0.039673
-0.021651
-0.011179
-0.0060108
-0.0029199
-0.022754
0.0094483
-0.025401
0.002053
0.020194
0.008869
0.023735
-0.014532
-0.0021904
-0.021113
-0.014707
-0.033613
-0.05718
-0.087153
-0.12779
-0.18204
-0.25497
-0.35451
-0.48942
-0.66681
-0.89735
-1.2019
-1.5973
-2.0441
-2.3868
-2.3411
-1.5804
0.097023
2.5565
5.265
7.6174
9.3354
10.5624
11.4092
11.9754
12.3449
12.5818
12.7292
12.8127
12.8461
12.8874
12.9614
13.0525
13.1416
13.2114
13.2504
13.2561
13.2354
13.201
13.1676
13.1477
49.6908
16.215
-32.221
-63.4456
-73.2879
-60.6875
-45.6083
-36.9513
-34.9921
-39.0603
-46.9478
-51.3932
-49.5318
-11.8189
56.4587
56.7812
1.9132
-16.6811
)
;

boundaryField
{
    bottom
    {
        type             symmetry;
    }
    inlet
    {
        type             zeroGradient;
    }
    object
    {
        type             zeroGradient;
    }
    outlet
    {
        type             fixedValue;
        value            uniform 0;
    }
    side1
    {
        type             empty;
    }
    side2
    {
        type             empty;
    }
    top
    {
        type             symmetry;
    }
}

// ************************************************************************* //
