/*--------------------------------*- C++ -*----------------------------------*\\
| =========                 |                                                 |
| \\      /  F ield         | OpenFOAM: The Open Source CFD Toolbox           |
|  \\    /   O peration     | Version:  v1706                                 |
|   \\  /    A nd           | Web:      www.OpenFOAM.com                      |
|    \\/     M anipulation  |                                                 |
\\*---------------------------------------------------------------------------*/
FoamFile
{
    version     2.0;
    format      ascii;
    class       volVectorField;
    location    "0.4";
    object      U;
}
// * * * * * * * * * * * * * * * * * * * * * * * * * * * * * * * * * * * * * //

dimensions      [0 1 -1 0 0 0 0]


internalField   nonuniform List<vector>
479
(
(5.4174 -1.7969 4.8379e-07)
(7.0081 -1.4438 4.8775e-07)
(10.567 -0.079084 4.2623e-07)
(11.9025 -0.23281 5.1616e-07)
(9.8306 0.20671 3.7395e-07)
(9.7252 0.092572 2.3413e-07)
(5.5215 -0.1247 1.0265e-06)
(5.419 -0.28216 1.0578e-06)
(10.3064 -0.44703 7.5139e-06)
(10.2185 -0.35308 8.4598e-06)
(11.7892 -0.27098 2.3418e-05)
(11.7138 -0.038129 2.2114e-05)
(9.3478 0.38348 3.8989e-07)
(9.5726 0.4045 5.0925e-07)
(9.8005 0.41244 7.9469e-07)
(11.603 -0.017517 6.6162e-05)
(11.5653 0.049716 6.5663e-05)
(11.5806 -0.2096 7.7659e-05)
(6.3042 3.2194 2.483e-07)
(8.6187 5.6651 2.5907e-07)
(6.7533 1.8975 2.613e-07)
(12.0637 -0.98697 2.0133e-06)
(11.8883 -0.86552 4.8322e-06)
(10.9764 -3.0076 2.4598e-07)
(11.6736 -2.4706 4.4425e-07)
(12.2575 -1.2373 4.0262e-07)
(10.5138 -0.42571 7.4286e-05)
(10.5365 -0.24292 0.00021581)
(10.3626 -0.24078 0.00019037)
(5.042 1.8393 2.4747e-06)
(1.9704 1.8394 1.8412e-06)
(11.8074 -0.050106 7.0553e-06)
(11.8141 0.035606 1.0554e-05)
(11.8496 -0.56835 1.3234e-05)
(3.0877 -1.0901 7.8838e-07)
(11.7977 -0.016528 6.8546e-07)
(11.652 0.63045 8.3638e-07)
(11.7903 1.0222 6.0238e-07)
(11.1337 0.56125 6.0983e-06)
(8.7829 1.2206 3.7018e-06)
(7.8233 1.2759 3.5378e-06)
(10.8118 0.56706 7.9519e-06)
(11.6587 0.20728 1.0516e-05)
(9.552 2.0909 4.9755e-07)
(9.6116 2.4694 4.8272e-07)
(9.2634 1.9058 4.7647e-07)
(11.5053 -0.32836 6.7045e-07)
(9.85 1.4712 5.6033e-07)
(10.0742 1.8914 5.323e-07)
(9.9406 0.77494 1.2537e-06)
(10.7517 1.3436 9.9781e-07)
(10.3326 1.0256 1.2402e-06)
(11.3151 1.0649 9.91e-07)
(11.6287 1.488 6.722e-07)
(12.2593 -0.72756 4.3744e-07)
(12.2819 1.3512 4.388e-07)
(10.4292 2.4249 5.0317e-07)
(11.153 1.9897 6.5396e-07)
(9.5643 0.81381 6.2825e-07)
(9.5524 1.1793 5.633e-07)
(10.5647 -0.66326 4.9244e-07)
(8.3567 -0.69255 4.7003e-07)
(-1.79 -0.30751 8.949e-07)
(9.6201 -1.075 4.887e-07)
(-2.2069 -0.63457 1.1262e-06)
(3.3938 0.49305 1.7951e-06)
(5.982 0.35419 2.5562e-06)
(6.5801 0.97137 3.195e-06)
(7.6933 -0.88418 5.4918e-07)
(6.1825 0.15505 2.5593e-06)
(5.6917 -0.037934 1.1987e-06)
(6.2979 0.10281 2.611e-06)
(5.7787 -0.0012594 1.2186e-06)
(6.3482 0.064081 2.6125e-06)
(5.8162 0.028874 1.2314e-06)
(6.3799 0.029864 2.595e-06)
(5.8371 0.042709 1.2254e-06)
(6.4061 0.0076124 2.5752e-06)
(5.8592 0.048123 1.2183e-06)
(6.4275 -0.0049007 2.5515e-06)
(5.896 0.046063 1.1947e-06)
(6.4298 -0.013688 2.5114e-06)
(5.9272 0.040078 1.172e-06)
(6.4483 -0.01835 2.4978e-06)
(5.9657 0.037547 1.1489e-06)
(6.4518 -0.021872 2.4636e-06)
(5.9708 0.04014 1.1312e-06)
(9.7507 -0.083421 2.2047e-07)
(9.8349 0.029816 2.2408e-07)
(9.8419 -0.06761 2.2161e-07)
(9.9 0.0063071 2.2436e-07)
(9.9041 -0.053755 2.2336e-07)
(9.8856 0.10904 2.5154e-07)
(9.9274 0.056325 2.2512e-07)
(10.1272 0.57439 7.3721e-06)
(9.345 0.40949 6.5588e-06)
(9.2275 0.28099 6.5012e-06)
(9.2037 0.2042 6.4406e-06)
(9.2026 0.14923 6.3766e-06)
(9.1987 0.10958 6.3109e-06)
(9.1936 0.082749 6.2448e-06)
(9.1983 0.065838 6.2155e-06)
(9.1928 0.055652 6.1697e-06)
(9.2013 0.047704 6.1543e-06)
(9.2006 0.041367 6.0902e-06)
(11.5605 0.14915 1.6907e-05)
(5.991 0.038523 1.1182e-06)
(6.4579 -0.021602 2.437e-06)
(9.215 0.037868 6.1207e-06)
(9.8901 -0.15379 2.16e-07)
(9.9348 -0.10495 2.1755e-07)
(9.9631 -0.070125 2.1931e-07)
(9.9445 -0.039289 2.2536e-07)
(9.9416 -0.0032997 2.264e-07)
(9.9559 0.02815 2.2228e-07)
(10.1927 -0.50927 6.3337e-07)
(9.854 -0.35568 6.278e-07)
(9.6795 -0.25206 6.4137e-07)
(9.6047 -0.18979 6.4979e-07)
(9.5363 -0.14432 6.5467e-07)
(9.5127 -0.11104 6.5116e-07)
(9.4942 -0.089482 6.4734e-07)
(9.5049 -0.076732 6.5304e-07)
(9.5204 -0.068664 6.627e-07)
(9.526 -0.061326 6.5675e-07)
(9.5248 -0.055509 6.5073e-07)
(9.5333 -0.052369 6.6011e-07)
(11.3844 0.21523 1.6728e-05)
(11.1007 0.21692 1.5693e-05)
(10.9371 0.16579 1.5233e-05)
(10.868 0.11508 1.5052e-05)
(10.8291 0.079226 1.4872e-05)
(10.8071 0.053744 1.472e-05)
(10.7882 0.035058 1.4561e-05)
(10.7801 0.021043 1.4572e-05)
(10.7757 0.012254 1.4569e-05)
(10.7729 0.00467 1.4438e-05)
(10.7644 0.0006403 1.4342e-05)
(10.7669 -0.0027513 1.4731e-05)
(9.8116 -0.22338 2.1478e-07)
(9.9754 -0.39854 4.4521e-07)
(10.0314 -0.50848 4.4335e-07)
(9.9694 -0.29309 2.5488e-07)
(9.9809 -0.19673 2.0719e-07)
(9.9891 -0.13063 2.0844e-07)
(9.9942 -0.085214 2.0995e-07)
(9.9973 -0.054612 2.1163e-07)
(9.9803 -0.046023 2.2119e-07)
(9.9698 -0.0279 2.2743e-07)
(9.9679 -0.0061864 2.2869e-07)
(9.9752 0.013342 2.2429e-07)
(9.9881 0.025129 2.1693e-07)
(9.9804 0.045996 2.267e-07)
(9.9715 0.081973 3.3608e-07)
(9.9655 0.1431 7.4958e-07)
(9.9734 0.24439 1.6056e-06)
(10.026 0.4161 3.2159e-06)
(10.2038 0.6526 4.1405e-06)
(10.6092 0.96307 3.7927e-06)
(11.124 0.72796 3.6235e-06)
(11.5178 0.43934 2.6584e-06)
(11.587 0.11727 2.3929e-06)
(11.254 -0.11122 2.1409e-06)
(11.003 -0.087024 2.0474e-06)
(10.8861 -0.038785 1.9924e-06)
(10.8279 -0.016586 1.9355e-06)
(10.7896 -0.0042022 1.8923e-06)
(10.7641 0.0086146 1.8633e-06)
(10.7466 0.017279 1.8398e-06)
(10.7446 0.023117 1.9682e-06)
(10.7484 0.026881 2.1324e-06)
(10.7499 0.029855 2.114e-06)
(10.7425 0.029107 2.0894e-06)
(10.7431 0.028729 2.2396e-06)
(10.7444 0.029545 2.3361e-06)
(9.5407 -0.04944 6.6562e-07)
(6.0184 0.035269 1.0975e-06)
(6.4628 -0.021701 2.4051e-06)
(9.2181 0.034293 6.0732e-06)
(10.7665 -0.0060939 1.4598e-05)
(9.5913 0.11088 2.3191e-07)
(9.6353 -0.11225 2.192e-07)
(9.7145 -0.27331 2.1435e-07)
(9.7671 -0.42903 2.8733e-07)
(9.8508 -0.60275 3.167e-07)
(10.0555 -0.64333 3.9526e-07)
(10.297 -0.61117 4.4056e-06)
(10.1302 -0.26059 3.0166e-06)
(10.0779 -0.18182 7.1464e-07)
(10.0473 -0.12205 1.995e-07)
(10.0281 -0.079428 2.0053e-07)
(10.0158 -0.05071 2.0177e-07)
(10.008 -0.031402 2.0317e-07)
(9.9989 -0.03398 2.1344e-07)
(9.9906 -0.029275 2.2318e-07)
(9.9852 -0.018906 2.2958e-07)
(9.9842 -0.0059664 2.3095e-07)
(9.9876 0.0058165 2.2655e-07)
(9.9938 0.013305 2.1895e-07)
(10.0008 0.015074 2.1106e-07)
(10.0024 0.027256 2.0949e-07)
(10.0065 0.047543 9.9451e-07)
(10.0168 0.080441 4.0479e-06)
(10.0393 0.13216 8.6713e-06)
(10.0879 0.21212 1.5382e-05)
(10.1847 0.32799 2.1962e-05)
(10.3731 0.47143 2.4138e-05)
(10.6786 0.59209 2.2715e-05)
(11.0572 0.53484 2.1087e-05)
(11.3612 0.35952 1.8283e-05)
(11.4773 0.13474 1.6277e-05)
(11.418 -0.02955 1.5031e-05)
(11.3084 -0.071339 1.4293e-05)
(11.2288 -0.064669 1.3693e-05)
(11.1926 -0.056847 1.332e-05)
(11.1719 -0.052856 1.299e-05)
(11.1582 -0.04804 1.28e-05)
(11.1476 -0.042699 1.5205e-05)
(11.1421 -0.0375 1.542e-05)
(11.141 -0.033133 1.7913e-05)
(11.1396 -0.031005 1.8946e-05)
(11.1364 -0.030612 1.8717e-05)
(11.1347 -0.029112 1.8701e-05)
(11.1353 -0.027221 2.4033e-05)
(11.1357 -0.026292 2.4711e-05)
(10.7477 0.030085 2.4682e-06)
(9.5499 -0.045543 6.7028e-07)
(6.0367 0.033184 1.0794e-06)
(6.4647 -0.025033 2.3734e-06)
(9.2176 0.030716 6.0102e-06)
(10.7639 -0.0076441 1.4591e-05)
(11.1757 0.016068 5.8601e-05)
(11.1776 0.016827 5.834e-05)
(11.179 0.018836 5.4565e-05)
(11.1819 0.022143 5.4819e-05)
(11.1861 0.025101 5.5002e-05)
(11.1924 0.030735 5.5227e-05)
(11.1999 0.037965 5.5237e-05)
(11.2114 0.047596 5.5109e-05)
(11.2295 0.058546 5.5809e-05)
(11.2548 0.071559 5.6618e-05)
(11.2951 0.086499 5.7683e-05)
(11.363 0.099566 5.9356e-05)
(11.4596 0.094294 6.1735e-05)
(11.9236 1.5 4.2565e-07)
(11.3739 -0.18521 0.00019512)
(11.4611 -0.086507 0.00021321)
(11.4733 -0.01114 0.00023012)
(11.4345 0.033025 0.0002468)
(11.3813 0.048535 0.00026071)
(11.3354 0.046215 0.00027491)
(11.3023 0.038078 0.00029056)
(11.2789 0.02954 0.00030731)
(11.2613 0.021804 0.00032488)
(11.2483 0.014849 0.0003437)
(11.2388 0.0092769 0.00036233)
(11.2319 0.0052183 0.00038076)
(11.2267 0.0022623 0.00039902)
(11.2228 -0.00044781 0.0004171)
(11.22 -0.0021109 0.00043498)
(11.2178 -0.0033477 0.00045284)
(10.0032 -0.018071 2.0471e-07)
(9.9996 -0.019706 2.1541e-07)
(9.9964 -0.017228 2.2537e-07)
(9.9943 -0.011537 2.3185e-07)
(9.9938 -0.0043385 2.3324e-07)
(9.9951 0.002267 2.2879e-07)
(9.9975 0.0066259 2.2103e-07)
(10.0002 0.0078867 2.1274e-07)
(10.0025 0.0061661 4.3276e-05)
(10.0065 0.011629 6.3721e-05)
(10.014 0.020561 8.4444e-05)
(10.0275 0.035011 0.00010512)
(10.051 0.057369 0.00012588)
(10.0918 0.090868 0.00014725)
(10.1607 0.1396 0.00016952)
(10.2749 0.20392 0.00019311)
(10.4534 0.27339 0.00021819)
(10.7062 0.33225 0.00022949)
(10.9856 0.30263 0.00025235)
(11.2276 0.21476 0.0002594)
(11.3619 0.097806 0.00026445)
(11.3863 0.0084028 0.00027229)
(11.3507 -0.026704 0.00028226)
(11.3085 -0.027702 0.0002946)
(11.2812 -0.021285 0.0003071)
(11.2656 -0.016002 0.00032137)
(11.255 -0.010406 0.00033999)
(11.2461 -0.0045457 0.00035858)
(11.2396 0.0011516 0.00037707)
(11.2354 0.0056522 0.00039536)
(11.2329 0.0084425 0.00041357)
(11.2299 0.0099803 0.00042822)
(11.2278 0.012129 0.00044608)
(11.2263 0.013944 0.00046373)
(11.2255 0.015244 0.00048139)
(11.2247 0.015862 0.00052136)
(11.1365 -0.026138 4.8939e-05)
(10.7481 0.029976 2.4193e-05)
(9.5524 -0.041904 2.239e-05)
(6.0414 0.033653 2.2684e-05)
(6.4677 -0.025699 2.3977e-05)
(9.2307 0.028972 2.7885e-05)
(10.765 -0.0090814 3.6354e-05)
(11.1748 0.014585 8.2701e-05)
(11.216 -0.0045539 0.00049227)
(9.4008 0.11334 2.3044e-07)
(9.4211 -0.14397 2.1788e-07)
(9.4838 -0.34517 2.1424e-07)
(9.574 -0.55915 2.5775e-07)
(9.7199 -0.79816 2.8537e-07)
(10.014 -0.87212 3.5587e-07)
(10.2927 -0.84967 2.5576e-06)
(10.4855 -0.5749 2.9612e-05)
(10.5278 -0.7672 1.6236e-05)
(10.6761 -0.64322 2.9651e-05)
(10.742 -0.41515 8.5987e-05)
(10.7743 -0.25142 0.00025203)
(10.2302 -0.17385 0.00016756)
(10.1458 -0.12147 0.00014622)
(10.0905 -0.082952 0.00012548)
(10.054 -0.054589 0.00010565)
(10.0303 -0.035041 8.5324e-05)
(10.0151 -0.021779 6.4594e-05)
(10.006 -0.012642 4.3478e-05)
(11.0366 -0.24921 0.00022978)
(6.8152 1.8155 2.587e-06)
(2.6968 1.2023 1.1353e-06)
(5.1547 1.9533 1.8723e-06)
(8.7718 1.1945 3.0129e-06)
(11.2448 0.53879 5.1524e-06)
(10.9626 -0.47158 6.7761e-05)
(11.2481 -0.29668 0.00015834)
(10.6436 2.9543 3.8381e-07)
(11.4625 -0.40343 6.9785e-05)
(8.2348 1.2469 2.2725e-06)
(10.9867 0.60377 3.7191e-06)
(11.7263 -0.5785 1.9922e-05)
(11.3975 -0.6338 3.2167e-05)
(11.1727 -0.53102 5.0068e-05)
(10.8628 -0.71762 2.4529e-05)
(10.6997 -0.94528 1.1125e-05)
(10.3944 -1.1409 1.6414e-06)
(10.0008 -1.2127 3.2076e-07)
(9.5766 -1.1106 2.6704e-07)
(9.3094 -0.80834 2.4295e-07)
(9.1584 -0.46871 2.1478e-07)
(9.0809 -0.14024 2.2182e-07)
(9.1196 0.24969 2.6774e-07)
(9.1656 0.68514 4.0076e-07)
(8.8651 3.3123 3.4481e-07)
(8.3603 2.2685 3.3469e-07)
(8.9833 1.1845 3.7745e-07)
(6.7755 0.73589 1.158e-06)
(10.3174 0.75639 1.5265e-06)
(11.0807 -0.82641 1.8209e-05)
(11.6836 0.35423 2.4339e-06)
(12.101 0.85591 9.5346e-07)
(11.3648 -0.9316 1.2671e-05)
(11.6932 -1.0002 8.1915e-06)
(10.9467 -1.1446 7.5469e-06)
(11.3087 -1.3751 4.6805e-06)
(11.7013 -1.5799 2.915e-06)
(10.6321 -1.491 1.085e-06)
(11.0721 -1.9354 7.014e-07)
(8.7779 0.45593 2.7693e-07)
(10.078 -1.7008 2.933e-07)
(10.3819 -2.363 2.6889e-07)
(8.5811 -0.073311 2.2947e-07)
(8.6185 -0.61646 2.1754e-07)
(8.2316 0.90364 2.7439e-07)
(9.3883 -1.6279 2.5307e-07)
(8.8787 -1.214 2.3342e-07)
(9.2433 -2.422 2.4117e-07)
(7.7444 0.093712 2.2815e-07)
(7.8478 -0.87538 2.1837e-07)
(8.2701 -1.853 2.2716e-07)
(8.762 -3.9645 2.302e-07)
(6.1526 0.46928 2.2688e-07)
(6.1907 -1.507 2.1862e-07)
(6.7863 -3.1564 2.2236e-07)
(10.0037 0.0023661 4.3934e-05)
(10.0097 0.0043469 6.4971e-05)
(10.0206 0.007602 8.5875e-05)
(10.0392 0.012905 0.00010648)
(10.0701 0.020945 0.00012671)
(10.1202 0.032572 0.00014752)
(10.1998 0.048709 0.00016973)
(10.32 0.068635 0.00019345)
(10.4898 0.088422 0.00021914)
(10.7111 0.1044 0.00024525)
(10.9516 0.098819 0.00027162)
(11.1626 0.075538 0.00029673)
(11.2977 0.042335 0.00031889)
(11.3478 0.014565 0.00033893)
(11.3402 0.00072796 0.00035781)
(11.313 -0.002558 0.0003754)
(11.2898 -0.0025502 0.000393)
(11.2748 -0.0028964 0.00041107)
(11.264 -0.0035757 0.00042901)
(11.2552 -0.0041638 0.00044678)
(11.2483 -0.0048199 0.00046444)
(11.2436 -0.0057598 0.00048198)
(11.2406 -0.0070143 0.00049941)
(11.2384 -0.008401 0.00051668)
(11.2366 -0.0096531 0.00053374)
(11.2352 -0.010769 0.00055072)
(11.2344 -0.011924 0.00056754)
(11.2339 -0.012976 0.00060592)
(11.2334 -0.013867 0.00060117)
(11.2222 0.016306 0.00051707)
(11.1373 -0.026301 2.6849e-05)
(10.7454 0.029548 2.2307e-06)
(9.5537 -0.039538 4.3336e-07)
(6.0482 0.033969 7.0699e-07)
(6.4716 -0.025478 1.9937e-06)
(9.2344 0.0277 5.9256e-06)
(10.7641 -0.010313 1.4413e-05)
(11.1745 0.01426 6.0369e-05)
(11.2133 -0.0050489 0.00048837)
(11.2019 0.0064819 0.00059991)
(11.204 0.0061962 0.00060452)
(11.2058 0.0059348 0.00056596)
(11.2082 0.0056998 0.00054907)
(11.2114 0.0055789 0.0005321)
(11.2156 0.0056603 0.00051504)
(11.2213 0.0058965 0.00049784)
(11.229 0.0064298 0.00048048)
(11.2394 0.0074239 0.00046296)
(11.2533 0.0088824 0.0004453)
(11.2715 0.010771 0.00042752)
(11.2953 0.012989 0.00041044)
(11.3263 0.01447 0.00039476)
(11.3637 0.01323 0.00037825)
(11.3986 0.0050768 0.00036162)
(11.4115 -0.013531 0.00034452)
(11.3754 -0.040489 0.00032573)
(11.2685 -0.068803 0.00030122)
(11.083 -0.11496 0.00027593)
(10.8238 -0.061681 0.00024671)
(10.5972 -0.06282 0.00020459)
(10.4207 -0.062441 0.00018025)
(10.2834 -0.053446 0.0001624)
(10.1834 -0.040756 0.00014421)
(10.1145 -0.029095 0.00012564)
(10.0683 -0.01975 0.00010638)
(10.0382 -0.012841 8.6329e-05)
(10.0191 -0.0080056 6.5686e-05)
(10.0075 -0.0045959 4.4539e-05)
(10.0017 -0.0021015 6.4042e-07)
(10.0013 -0.0058242 2.3505e-07)
(10.0007 -0.0083546 -2.1727e-05)
(9.9999 -0.0091198 -2.1732e-05)
(9.9992 -0.0080425 -2.1726e-05)
(9.9987 -0.0055075 -2.1722e-05)
(9.9986 -0.0022788 -2.1721e-05)
(9.9989 0.00073305 -2.166e-05)
(9.9994 0.002763 -2.1606e-05)
(10 0.003402 -2.1592e-05)
(10.0005 0.0026943 4.0047e-07)
(10.0008 0.0010165 7.0704e-07)
(6.3433 -4.7454 2.1972e-07)
(9.2164 -6.6209 2.23e-07)
(12.3874 -5.9827 2.3045e-07)
(13.5912 -4.9193 2.2993e-07)
(13.3212 -2.545 3.0922e-07)
(10.8021 -1.997 3.0831e-07)
(3.2349 -2.6623 5.4511e-07)
(-2.5057 -1.5915 9.8895e-07)
(-2.7153 -0.50387 8.8398e-07)
(-5.0425 1.4175 8.6996e-07)
(9.6947 2.8675 3.1174e-07)
(12.7086 3.1587 2.6146e-07)
(12.8061 5.3095 2.5779e-07)
(11.2153 6.3151 2.5845e-07)
(5.1071 1.0521 2.2579e-07)
(5.1004 -2.009 2.1855e-07)
(5.9197 0.2731 2.4271e-06)
(12.3264 1.0505 4.3832e-07)
)
;

boundaryField
{
    bottom
    {
        type             symmetry;
    }
    inlet
    {
        type             fixedValue;
        value            uniform (10 0 0);
    }
    object
    {
        type             noSlip;
    }
    outlet
    {
        type             zeroGradient;
    }
    side1
    {
        type             empty;
    }
    side2
    {
        type             empty;
    }
    top
    {
        type             symmetry;
    }
}

// ************************************************************************* //
