/*--------------------------------*- C++ -*----------------------------------*\\
| =========                 |                                                 |
| \\      /  F ield         | OpenFOAM: The Open Source CFD Toolbox           |
|  \\    /   O peration     | Version:  v1706                                 |
|   \\  /    A nd           | Web:      www.OpenFOAM.com                      |
|    \\/     M anipulation  |                                                 |
\\*---------------------------------------------------------------------------*/
FoamFile
{
    version     2.0;
    format      ascii;
    class       surfaceScalarField;
    location    "0.05";
    object      mdot_f;
}
// * * * * * * * * * * * * * * * * * * * * * * * * * * * * * * * * * * * * * //

dimensions      [1 0 -1 0 0 0 0]


internalField   nonuniform List<scalar>
906
(
-0.024057
0.021249
0.0032674
-0.00045931
-0.0059133
-0.0169
-0.0012589
-0.031578
0.03409
0.018825
-0.021337
0.033832
-0.032873
-0.032543
0.0052503
0.064821
-0.063892
-0.0061795
0.0024461
-0.065038
0.067846
-0.045588
0.044893
-0.0038813
0.0045767
-0.028878
0.018864
-0.035587
-0.069733
0.043202
-0.0088781
0.035408
-0.0021279
0.0019353
-0.069534
0.053957
-0.011665
0.014182
-0.056475
0.014072
-0.0044493
0.044333
-0.023805
-0.017908
0.0078415
0.033871
-0.029086
0.035525
-0.030237
0.046728
-0.010984
0.072954
-0.062435
0.0035485
0.0016359
0.068723
0.0025963
-0.005306
-0.068797
0.022179
-0.014035
-0.0081437
-0.0023942
0.024582
0.01568
-0.021773
-0.0079358
0.035876
-0.018392
0.017224
-0.034708
0.038401
0.028688
-0.031211
0.037306
-0.021581
-0.028276
0.012551
0.041244
0.025141
-0.029074
0.031839
-0.0089845
-0.020607
0.019741
0.044073
-0.067475
0.052893
-0.00602
-0.067403
-0.002192
-0.0061761
0.0053409
0.022844
-0.022009
0.0089589
-0.0038579
-0.011293
0.047693
-0.031636
0.024536
-0.040593
0.049443
0.012426
-0.049718
0.016956
0.013216
-0.041776
0.062372
0.013236
-0.02503
-0.041608
0.024858
-0.041181
-0.016721
0.0099291
0.042334
-0.010836
-0.041428
0.036193
-0.003565
-0.022706
0.0010598
0.040453
0.055004
-0.011624
0.034146
0.0095728
-0.020123
-0.0070178
0.017568
-0.017702
0.025448
0.0018298
-0.023171
-0.014649
-0.002345
0.056657
0.0080583
0.023489
0.00084548
-0.031349
0.021568
0.019495
0.04745
0.0063527
-0.0070739
-0.04158
0.047383
0.015767
0.0067279
0.0032107
0.0025678
0.0032877
-0.041257
-0.025195
0.0035783
-0.010926
-0.049553
0.027646
0.035257
0.0096893
0.0097703
0.040372
0.0015114
-0.01414
0.041403
0.0098036
-0.0078869
0.0051667
0.0033708
0.042305
0.00079205
0.010895
-0.044816
0.01141
0.052265
0.0065194
0.019921
0.0060041
0.054231
-0.0034226
-0.056813
0.050322
0.0005517
0.0010176
0.055366
-0.0021651
0.051355
-2.4339e-05
0.00081617
0.056067
-0.0015221
0.052605
-0.0004414
0.00020764
0.057106
-0.0012516
0.054297
-0.0014907
0.00020732
0.058055
-0.0011602
0.055903
-0.0014029
-0.00040896
0.059498
-0.0010366
0.057418
-0.0019273
-0.00036976
0.060295
-0.00042915
0.058796
-0.0017491
-0.00026986
0.061506
-0.00094182
0.060227
-0.0017012
-0.00029303
-0.00058437
0.062383
0.060998
-0.0010652
-0.069245
0.006198
0.065496
0.0051664
-0.066214
-0.0039858
-0.067556
0.0034857
0.0032531
-0.0035456
-0.065918
0.0024969
-0.066796
-0.064435
-0.0034359
-0.06528
-0.0026976
0.061266
0.00025541
0.06716
0.0055065
0.062595
0.0011317
0.061604
-0.0011805
0.061286
-0.0012105
0.061405
-0.0013746
0.061447
-0.0012056
0.061992
-0.0015842
0.062962
-0.0014004
0.063418
-0.0013979
0.063475
-0.00064093
0.066851
-9.6707e-05
-0.0012056
0.0623
-0.00055988
0.062847
-0.0014353
0.06435
-0.067951
0.068439
0.0029992
-0.067337
0.0018886
-0.0019224
0.0012963
-0.066709
-0.0022679
-0.066446
-0.0021479
-0.066035
-0.065867
-0.0015582
0.067713
0.0088601
0.061972
0.0018444
0.062737
-0.00022063
0.062773
-6.6467e-05
0.063039
-0.00071281
0.063013
-0.0014693
0.063285
-0.0016782
0.063908
-0.0025528
0.064634
-0.0024775
0.064543
-0.0016109
0.064546
-0.0010692
-0.0018208
0.065162
0.068739
0.070551
0.0036916
0.07003
0.0016489
0.068272
0.00057468
0.067478
-0.00041925
0.066909
-0.00080783
0.066625
-0.00092286
0.066507
-0.0014663
0.066444
-0.0013385
0.06587
-0.00082341
0.066241
-0.0010118
0.066467
-0.0016601
0.0054687
0.069176
0.056812
-0.076751
0.021877
0.0089121
0.039029
-0.069837
-0.0014367
-0.067861
0.001029
-0.067333
0.0013634
-0.06676
0.00072743
-0.00096778
0.00057932
-0.06637
-0.0013123
-0.066359
-0.0014806
-0.066276
-0.00098042
-0.066533
-0.00073629
-0.06611
0.065748
-0.066398
-8.5863e-05
0.065065
-0.00087335
0.064152
-0.0017839
0.063887
-0.0031688
0.061457
-0.0037451
0.055494
-0.0050191
0.050718
-0.0022913
0.053372
0.004075
0.051424
0.0045195
0.066745
0.0095407
0.066785
0.008011
0.070937
0.0047033
0.070723
0.0020525
0.069304
0.0011922
0.069504
-0.00027145
0.069246
-0.00046033
0.069067
-0.0012948
0.068721
-0.0013357
0.06854
-0.0023746
0.06832
-0.0022599
0.067824
-0.0011156
0.067618
-0.00086423
0.067505
-0.0017082
0.001481
-0.0012407
0.067264
0.0012168
0.065425
0.00062558
0.062892
-0.00052451
0.063997
-0.00078944
0.064616
0.06634
-0.00066201
-0.0044575
0.042073
0.013111
0.047934
0.045291
0.037
0.035787
0.031387
0.022804
0.021898
0.027078
0.034758
0.027835
0.034657
-0.069929
-0.0010357
-0.068596
-0.00030081
-0.067664
0.00043405
-0.067231
0.00029745
-0.066898
0.0002508
-0.00082029
-0.066223
0.0001462
-0.00052942
-0.066656
-0.00026599
-0.06662
5.9038e-05
-0.066599
0.00012504
-0.066597
0.00029198
-0.066276
0.00048231
-0.066587
0.066131
-0.0666
0.00095186
0.065808
0.00023852
0.065335
-0.00039966
0.065078
-0.0015252
0.063954
-0.0020445
0.062855
-0.0026451
0.0601
-0.002262
0.058328
-0.00051789
0.057853
0.0045525
0.061742
0.00063207
0.06669
0.0045919
0.0701
0.0045984
0.071665
0.0031338
0.071715
0.0019968
0.072081
0.00082115
0.07136
0.00044442
0.07102
-0.00012512
0.07091
-0.0011897
0.071298
-0.0017271
0.07009
-0.0011694
0.069334
-0.0015065
0.069357
-0.0011403
0.068712
-0.00022028
0.067743
-0.00073974
0.067966
-0.0014639
0.0011974
-0.00065469
0.067423
0.0012458
0.067216
0.00092785
0.065744
0.00011176
0.063709
-0.00035388
0.064463
-0.00047039
0.064733
-0.0007747
0.066645
-0.067394
-0.00058296
0.067202
-0.066757
-0.001298
-0.067753
-0.00066295
-0.068003
-0.00076202
-0.067964
-0.00086182
-0.068339
-0.00096315
-0.068737
-0.0010679
-0.069105
-0.00055553
-0.069603
-0.00031083
-0.070216
0.00019206
-0.070744
0.0011007
-0.070884
0.0017871
0.0015267
-0.037486
-0.0022968
0.066041
-0.065308
-0.0060371
0.068469
0.0011242
0.069691
0.0013734
0.069938
0.0012814
0.070751
0.00097278
0.071211
0.00063975
0.070783
0.00061836
0.070722
-0.00025041
0.070789
-0.00062343
0.070293
-0.0005725
0.069851
-0.00052211
0.069461
-0.00047132
0.069119
-0.00041982
0.068824
-0.00036784
0.067844
-0.00031718
0.06753
-0.00026861
-0.00010823
0.00056496
-0.066677
-9.6463e-05
-0.066664
-6.1026e-05
-0.066653
-1.1309e-05
-0.066646
3.8634e-05
-0.066645
0.0004146
-0.06665
0.00048802
-0.066659
0.00055838
-0.06667
0.066546
0.00069078
-0.066679
0.067419
8.0223e-05
0.067523
0.00013499
0.066906
0.00021776
0.065982
-0.00060137
0.064962
-0.0010236
0.062975
-0.00065752
0.061333
-0.00061922
0.060925
-0.0001086
0.063881
0.0015984
0.063887
0.00062807
0.066482
0.0019965
0.069144
0.0019345
0.070898
0.0013762
0.072174
0.00071588
0.072255
0.00073484
0.072586
0.00010875
0.073182
-0.00072664
0.072674
-0.00068643
0.071582
-0.00063909
0.070999
-0.00058922
0.070028
-0.00053746
0.069372
-0.00048612
0.069584
-0.00043354
0.069222
-0.00037877
0.068084
-0.00032634
0.067706
-0.0002771
0.0008068
-0.00068665
0.067586
0.00062449
0.067605
0.00072809
0.067112
0.00058474
0.065887
9.205e-05
0.064202
-0.00027621
0.064832
-0.00099875
0.065456
-0.00088833
0.066535
-0.00086259
0.067177
0.066888
-0.00022043
-0.0016724
0.025843
0.013869
0.032397
0.019518
0.031356
0.022351
0.028558
0.018266
0.025988
0.022998
0.030029
0.021821
0.029015
0.022638
0.031764
0.0087712
0.035691
-0.0022941
0.042832
-0.0033115
0.045096
0.050678
-0.00109
-0.06795
-0.00048499
-0.067896
-0.00035128
-0.067399
-5.9499e-05
-0.067107
7.7253e-06
-0.066757
-9.6131e-05
-0.06681
0.00020225
0.00044566
-0.066687
-0.017724
0.052938
0.015467
-0.0098064
-0.015787
0.0076371
-0.010258
0.0034129
-0.013495
-0.011263
-0.02724
-0.040278
0.045784
-0.018405
0.021685
-0.034046
-0.02685
-0.00094452
-0.0054528
-0.041656
-0.01878
-0.021957
-0.034527
-0.027534
-0.027636
-0.036499
-0.032691
-0.024757
-0.015848
0.040279
-0.018868
0.038714
-0.019725
0.029875
-0.018261
0.028569
-0.017262
0.024993
-0.012881
0.024183
-0.0077735
0.026254
-0.0032013
0.027831
0.030492
0.033177
0.0022136
-0.027406
-0.026365
-0.0073249
-0.020495
-0.011731
-0.032867
-0.022157
0.038836
-0.023312
-0.044778
0.0042868
0.032369
-0.02622
-0.026478
0.036459
-0.021055
0.036042
-0.025801
0.029373
-0.020549
-0.025497
0.0047798
0.027928
0.025997
-0.017974
-0.021074
0.0085132
0.024104
0.011545
0.023229
-0.0011598
-0.015183
0.022208
0.020555
-0.015939
0.017076
0.0041968
0.018751
0.01053
0.016903
0.015152
-0.019851
0.0086584
0.0022088
0.0086176
0.012231
0.0068888
0.0075391
0.067374
-0.066683
0.067455
0.06759
0.067808
0.067206
0.066183
0.065526
0.064907
0.0648
0.066399
0.067027
0.069023
0.070955
0.072329
0.073042
0.073774
0.07388
0.073151
0.072463
0.071822
0.071232
0.070694
0.070207
0.069773
0.069394
0.069067
0.06879
0.068104
0.00038331
0.00035068
0.00046542
0.00051128
0.0003873
8.475e-05
-0.00016806
-0.00032772
-0.0003533
-0.00029254
-0.00082123
-0.06849
-0.068711
-0.068979
-0.069296
-0.069663
-0.070083
-0.070554
-0.071076
-0.071648
-0.072272
-0.072523
-0.071905
-0.071266
-0.070293
-0.069012
-0.067639
-0.066514
-0.072547
-0.057073
-0.05816
-0.064176
-0.066366
-0.066849
-0.067199
-0.067257
-0.067248
-0.067343
-0.067139
-0.066693
-2.6058e-05
-4.5217e-05
-5.3835e-05
-5.0563e-05
-3.6364e-05
-1.5249e-05
6.8161e-06
2.3615e-05
3.1135e-05
2.8087e-05
1.6363e-05
0.014919
-0.00738
0.023584
0.03614
0.027154
0.031441
0.0092826
-0.0024503
0.00095148
0.0043078
-0.003583
-0.024923
-0.021345
-0.02364
0.00048464
)
;

boundaryField
{
    bottom
    {
        type             calculated;
        value            uniform 0;
    }
    inlet
    {
        type             calculated;
        value            nonuniform List<scalar>
12
(
-0.066667
-0.066667
-0.066667
-0.066667
-0.066667
-0.066667
-0.066667
-0.066667
-0.066667
-0.066667
-0.066667
-0.066667
)
;
    }
    object
    {
        type             calculated;
        value            uniform 0;
    }
    outlet
    {
        type             calculated;
        value            nonuniform List<scalar>
12
(
0.067714
0.067655
0.067406
0.067107
0.066553
0.065613
0.065088
0.064513
0.066012
0.06706
0.067483
0.067612
)
;
    }
    side1
    {
        type             calculated;
        value            uniform 0;
    }
    side2
    {
        type             calculated;
        value            uniform 0;
    }
    top
    {
        type             calculated;
        value            uniform 0;
    }
}

// ************************************************************************* //
