/*--------------------------------*- C++ -*----------------------------------*\\
| =========                 |                                                 |
| \\      /  F ield         | OpenFOAM: The Open Source CFD Toolbox           |
|  \\    /   O peration     | Version:  v1706                                 |
|   \\  /    A nd           | Web:      www.OpenFOAM.com                      |
|    \\/     M anipulation  |                                                 |
\\*---------------------------------------------------------------------------*/
FoamFile
{
    version     2.0;
    format      ascii;
    class       volScalarField;
    location    "0.05";
    object      p;
}
// * * * * * * * * * * * * * * * * * * * * * * * * * * * * * * * * * * * * * //

dimensions      [0 2 -2 0 0 0 0]


internalField   nonuniform List<scalar>
479
(
-9.2128
-16.4784
-25.3315
-23.2313
12.2542
13.1267
-0.73984
-1.6604
8.4892
9.4356
-8.6605
-8.0326
16.9211
14.5575
12.766
-6.4243
-5.8838
-5.9405
48.5026
27.0946
32.4046
-20.4424
-15.2866
-1.1542
-12.6678
-27.3053
6.5616
6.2925
8.0578
-3.3274
-4.1462
-13.0477
-10.7064
-10.4006
-4.1385
-15.2457
-11.2972
-17.0072
-8.446
-7.3642
-4.5469
-6.1484
-9.3432
10.9708
11.5578
14.2956
-11.8947
11.5138
6.0539
11.7102
2.223
8.8164
-3.9756
-12.1982
-48.3442
-30.3213
0.82957
-7.0529
14.9542
14.9042
-14.8693
-31.6784
-28.4482
-10.6266
-10.9945
-2.2979
-1.3138
-2.5948
-6.0933
0.44028
0.31845
0.80223
0.93182
0.86261
0.97327
0.62853
0.75804
0.34199
0.4705
0.10327
0.2189
-0.067596
0.033724
-0.1623
-0.079221
-0.20149
-0.13943
13.1018
12.3231
12.3293
11.8086
11.8124
11.8328
11.5284
-4.1832
-2.6285
-1.0365
-0.34983
-0.11376
-0.067938
-0.12016
-0.18874
-0.24373
-0.26074
-0.25759
-7.0154
-0.14958
-0.19456
-0.2239
11.9523
11.5696
11.3282
11.4849
11.4836
11.3191
-8.6246
-3.5674
-1.4869
-0.44715
0.043297
0.22345
0.19099
0.11699
0.033665
-0.03393
-0.080747
-0.086545
-5.8191
-4.3969
-2.9371
-1.8535
-1.1714
-0.7748
-0.56022
-0.43475
-0.36183
-0.3094
-0.26637
-0.21205
12.5636
11.4533
10.8854
11.3497
11.2229
11.12
11.0513
11.0082
11.1812
11.2809
11.2814
11.1838
11.0239
11.0579
11.0956
11.1117
11.0308
10.6176
9.1141
5.443
-1.208
-7.2717
-9.9217
-8.6279
-5.6815
-3.4394
-1.9776
-1.0788
-0.55931
-0.30663
-0.17856
-0.13469
-0.12888
-0.12631
-0.10718
-0.089979
-0.074711
-0.12987
-0.16032
-0.17704
-0.16481
14.3444
14.2752
13.6685
13.0826
12.4806
10.2641
8.0582
10.0645
10.4111
10.6137
10.7374
10.812
10.8565
10.9826
11.0929
11.1576
11.1595
11.0999
10.9995
10.8874
10.8501
10.7823
10.6568
10.4204
9.9666
9.0887
7.376
4.3489
-0.22076
-4.4034
-6.4708
-6.4669
-5.0769
-3.5336
-2.291
-1.4035
-0.81094
-0.45873
-0.25489
-0.15497
-0.10999
-0.084785
-0.064484
-0.052353
-0.043971
-0.069442
-0.048492
-0.085678
-0.1067
-0.12206
-0.11571
-0.095982
-0.13517
-0.17745
-0.23054
-0.29476
-0.38291
-0.5198
-0.74286
-1.0909
-1.6364
-2.4414
-3.5229
-4.7784
-22.6748
-3.5901
-4.8293
-4.9878
-4.4204
-3.5446
-2.6641
-1.9203
-1.3522
-0.94785
-0.66968
-0.48496
-0.36087
-0.27368
-0.20881
-0.15878
-0.12044
10.881
10.9681
11.0442
11.0895
11.0922
11.0529
10.9847
10.907
10.8413
10.7934
10.7064
10.5578
10.3111
9.9047
9.2396
8.1504
6.4129
3.843
0.51692
-2.5904
-4.5106
-5.0542
-4.5277
-3.5778
-2.6144
-1.8075
-1.1998
-0.77767
-0.5037
-0.33439
-0.23313
-0.1709
-0.12847
-0.10059
-0.084226
-0.07615
-0.039917
-0.04695
-0.012594
-0.025237
-0.039067
-0.056137
-0.063188
-0.062463
-0.09118
16.2624
16.1663
15.8424
15.0223
13.7901
10.9147
7.9802
6.2917
5.6994
4.4151
4.2322
3.7188
9.132
9.7952
10.2158
10.483
10.6496
10.7505
10.8064
0.68979
-6.9606
-25.1767
-10.2325
-9.7069
-10.6517
1.5165
-2.2179
-2.4442
-4.685
-13.7046
-12.6436
-7.5534
-4.2701
-1.2672
2.1373
3.7559
7.1151
11.3149
15.2718
17.5706
18.777
19.2854
19.1617
18.2373
19.0676
20.4307
20.0845
-28.9564
-25.3455
-0.74849
-20.1653
-35.6631
-4.4107
-9.305
0.76649
-3.8616
-11.4226
4.7332
-0.2372
21.9871
10.7549
8.2907
23.4973
23.0065
25.5952
17.0891
21.1189
19.1821
28.9086
29.0631
26.417
19.8244
37.7985
38.5745
34.6146
10.8043
10.7412
10.6257
10.4327
10.1216
9.6288
8.8615
7.694
5.9802
3.6602
0.85957
-1.7833
-3.5965
-4.3298
-4.1475
-3.472
-2.6649
-1.9205
-1.3205
-0.8804
-0.57932
-0.38306
-0.25985
-0.18305
-0.13382
-0.10305
-0.085741
-0.079949
-0.12211
-0.11225
-0.069709
-0.036675
0.055389
0.11861
0.096305
0.048503
-0.012555
-0.055024
-0.10046
-0.12612
-0.10574
-0.1337
-0.17402
-0.22814
-0.30111
-0.40236
-0.54736
-0.75814
-1.0621
-1.4869
-2.0484
-2.7322
-3.4644
-4.0734
-4.3016
-3.8304
-2.3024
0.25355
3.1275
5.5548
7.347
8.5994
9.4393
9.9886
10.339
10.5577
10.6897
10.7632
10.793
10.8289
10.8908
10.9623
11.0249
11.0623
11.0651
11.0337
10.9781
10.9144
10.8601
10.8291
52.1139
21.8371
-25.5427
-61.838
-84.9442
-81.0453
-62.5061
-49.4904
-50.2033
-63.7157
-81.4182
-81.3185
-61.9168
-15.049
55.2494
56.7269
-0.25634
-31.5498
)
;

boundaryField
{
    bottom
    {
        type             symmetry;
    }
    inlet
    {
        type             zeroGradient;
    }
    object
    {
        type             zeroGradient;
    }
    outlet
    {
        type             fixedValue;
        value            uniform 0;
    }
    side1
    {
        type             empty;
    }
    side2
    {
        type             empty;
    }
    top
    {
        type             symmetry;
    }
}

// ************************************************************************* //
