/*--------------------------------*- C++ -*----------------------------------*\\
| =========                 |                                                 |
| \\      /  F ield         | OpenFOAM: The Open Source CFD Toolbox           |
|  \\    /   O peration     | Version:  v1706                                 |
|   \\  /    A nd           | Web:      www.OpenFOAM.com                      |
|    \\/     M anipulation  |                                                 |
\\*---------------------------------------------------------------------------*/
FoamFile
{
    version     2.0;
    format      ascii;
    class       volVectorField;
    location    "0.05";
    object      U;
}
// * * * * * * * * * * * * * * * * * * * * * * * * * * * * * * * * * * * * * //

dimensions      [0 1 -1 0 0 0 0]


internalField   nonuniform List<vector>
479
(
(5.359 -1.9768 1.5492e-08)
(5.8364 -2.1412 2.0668e-08)
(10.3801 -1.5026 8.0104e-08)
(11.604 -0.64917 1.0918e-07)
(9.8506 0.27587 1.6303e-06)
(9.728 0.16058 1.5479e-06)
(6.7211 -0.33243 1.0429e-08)
(6.3601 -0.41551 1.2862e-08)
(10.2632 -0.44824 7.1683e-06)
(10.1896 -0.34809 8.3288e-06)
(11.5387 0.0025857 9.0873e-06)
(11.3526 0.23269 5.7026e-06)
(9.3441 0.51475 1.4817e-06)
(9.5894 0.50633 1.6791e-06)
(9.8389 0.5037 1.9289e-06)
(11.3257 0.12678 3.0773e-05)
(11.1787 0.20708 2.1959e-05)
(11.4113 -0.12411 4.0525e-05)
(6.105 3.6556 6.5875e-07)
(8.4847 6.0739 3.4218e-07)
(6.7646 2.1707 8.1225e-07)
(12.0113 -0.8569 6.7877e-07)
(11.7669 -0.55056 1.197e-06)
(10.6053 -2.9982 4.3099e-07)
(11.4024 -2.6539 3.3887e-07)
(12.0238 -1.1517 1.8738e-07)
(10.4777 -0.43177 5.9991e-05)
(10.5241 -0.25582 0.00018391)
(10.3439 -0.24559 0.00016766)
(5.4068 1.6107 1.0485e-07)
(1.7352 1.1294 5.8817e-08)
(11.4968 0.25405 1.5128e-06)
(11.3987 0.44446 2.0131e-06)
(11.6301 -0.25767 3.6468e-06)
(4.1727 -0.83806 7.1167e-09)
(11.6652 -0.28954 1.7478e-07)
(11.794 0.42133 3.5809e-07)
(11.9273 0.46084 1.6587e-07)
(10.4479 1.0566 7.1646e-07)
(8.7357 1.5333 2.327e-07)
(8.016 1.502 1.1048e-07)
(10.2234 0.95561 8.528e-07)
(11.1911 0.62849 1.6799e-06)
(9.5592 2.2879 6.0241e-07)
(9.6772 2.782 4.6344e-07)
(9.222 2.1895 7.0693e-07)
(11.3017 -0.65467 6.9292e-08)
(9.9331 1.638 8.4109e-07)
(10.1768 2.1368 3.408e-07)
(10.0042 0.89325 1.8595e-06)
(10.9189 1.4451 9.7672e-07)
(10.4698 1.136 1.549e-06)
(11.4778 1.0987 6.1202e-07)
(11.7854 1.1228 2.7057e-07)
(12.5554 -1.3887 1.1559e-07)
(12.6354 1.7199 1.8892e-07)
(10.5512 2.6565 2.4214e-07)
(11.3265 1.9834 3.1904e-07)
(9.608 0.94153 1.3477e-06)
(9.5746 1.3779 1.022e-06)
(10.4025 -1.334 3.6457e-08)
(6.0566 -1.2267 2.4582e-08)
(3.4886 -1.2247 1.3628e-08)
(9.5491 -1.4362 2.5246e-08)
(-1.6182 -1.0322 1.1208e-08)
(4.8686 0.43015 2.0152e-08)
(7.0824 0.52236 3.6415e-08)
(7.2265 1.1555 6.7942e-08)
(7.7824 -1.1044 1.5139e-08)
(7.591 0.34293 1.463e-08)
(7.0926 -0.21347 1.8903e-09)
(7.9336 0.24243 7.8063e-09)
(7.3565 -0.15705 1.3884e-09)
(8.2002 0.18488 5.6706e-09)
(7.6477 -0.11956 1.0788e-09)
(8.4497 0.13891 4.3119e-09)
(7.9583 -0.10508 1.0136e-09)
(8.6777 0.1052 3.3356e-09)
(8.241 -0.09384 8.0353e-10)
(8.8791 0.079097 2.5491e-09)
(8.506 -0.089711 8.899e-10)
(9.0517 0.059345 1.5562e-09)
(8.7377 -0.085336 8.1707e-10)
(9.2063 0.046182 1.4278e-09)
(8.9412 -0.079684 6.5022e-10)
(9.3374 0.035751 9.4135e-10)
(9.1114 -0.071338 3.9847e-10)
(9.7329 -0.02614 1.5593e-06)
(9.8336 0.080178 1.4464e-06)
(9.829 -0.023373 1.4765e-06)
(9.8992 0.043425 1.2928e-06)
(9.8966 -0.020872 1.3086e-06)
(9.8982 0.16015 1.4774e-06)
(9.9347 0.094111 1.3026e-06)
(9.67 0.92072 4.556e-07)
(9.1445 0.75966 2.9777e-07)
(9.0513 0.61532 2.2992e-07)
(9.095 0.5091 1.9476e-07)
(9.159 0.41903 1.5531e-07)
(9.2335 0.34612 1.2485e-07)
(9.3115 0.28989 9.7142e-08)
(9.3939 0.24529 7.9981e-08)
(9.4708 0.20962 6.2675e-08)
(9.5431 0.17939 4.9098e-08)
(9.6049 0.1535 3.4844e-08)
(11.0765 0.49868 3.3292e-06)
(9.2609 -0.063878 3.6154e-10)
(9.4499 0.028245 7.119e-10)
(9.6651 0.13056 3.068e-08)
(9.87 -0.12048 1.4618e-06)
(9.9229 -0.079119 1.2983e-06)
(9.9563 -0.05074 1.0812e-06)
(9.9403 -0.015268 1.0872e-06)
(9.9411 0.023697 1.0855e-06)
(9.9602 0.05556 1.0829e-06)
(10.0029 -0.85969 4.1157e-08)
(9.5706 -0.80361 3.0591e-08)
(9.4655 -0.70624 2.7473e-08)
(9.4217 -0.62268 2.0735e-08)
(9.4217 -0.55328 1.8342e-08)
(9.4623 -0.49392 1.8562e-08)
(9.5166 -0.44153 1.8175e-08)
(9.5817 -0.39336 2.4086e-08)
(9.6437 -0.34861 2.6215e-08)
(9.6947 -0.30736 1.9579e-08)
(9.7367 -0.26962 1.3924e-08)
(9.7785 -0.23319 1.5128e-08)
(10.8779 0.50371 3.2167e-06)
(10.546 0.5038 2.4828e-06)
(10.3404 0.43446 2.0059e-06)
(10.2182 0.36743 1.632e-06)
(10.1357 0.31311 1.3569e-06)
(10.0788 0.2703 1.1336e-06)
(10.0404 0.23715 9.3809e-07)
(10.0165 0.21032 8.3011e-07)
(10.0011 0.18769 7.1037e-07)
(9.9903 0.16694 5.6423e-07)
(9.9834 0.14821 4.8447e-07)
(9.9814 0.12964 4.6879e-07)
(9.7807 -0.18111 1.7813e-06)
(9.934 -0.37329 1.7499e-06)
(9.9791 -0.4872 1.7482e-06)
(9.9367 -0.26835 1.5934e-06)
(9.9603 -0.17511 1.4524e-06)
(9.976 -0.11297 1.2894e-06)
(9.9865 -0.071311 1.0759e-06)
(9.9933 -0.044354 8.3406e-07)
(9.977 -0.032075 8.452e-07)
(9.9677 -0.010787 8.5061e-07)
(9.9679 0.012783 8.492e-07)
(9.9777 0.032483 8.4025e-07)
(9.9932 0.042478 8.3284e-07)
(9.9895 0.070784 1.4561e-06)
(9.9866 0.11591 1.7384e-06)
(9.9896 0.18807 2.1067e-06)
(10.0102 0.30204 2.5912e-06)
(10.0831 0.48952 3.311e-06)
(10.2947 0.73743 3.2991e-06)
(10.7476 1.067 2.6604e-06)
(11.3002 0.73205 2.2556e-06)
(11.6805 0.27105 1.3832e-06)
(11.6648 -0.0035172 1.0783e-06)
(11.2702 -0.31575 8.1709e-07)
(10.9605 -0.33335 6.7116e-07)
(10.7769 -0.32488 5.543e-07)
(10.6384 -0.31126 4.7726e-07)
(10.525 -0.29181 4.0368e-07)
(10.437 -0.27134 4.0748e-07)
(10.3647 -0.25258 4.2522e-07)
(10.3063 -0.23346 5.4006e-07)
(10.258 -0.21342 6.0209e-07)
(10.2145 -0.19332 4.8816e-07)
(10.1754 -0.17382 3.919e-07)
(10.1436 -0.15346 4.1388e-07)
(10.1172 -0.13347 3.7529e-07)
(9.8145 -0.19897 1.1796e-08)
(9.3889 -0.056127 3.1205e-10)
(9.5452 0.021852 5.4167e-10)
(9.7161 0.10993 2.1701e-08)
(9.9798 0.11207 3.5054e-07)
(9.5896 0.19739 1.7094e-06)
(9.6073 -0.036071 1.7166e-06)
(9.6703 -0.21711 1.6997e-06)
(9.7093 -0.38041 1.6359e-06)
(9.7716 -0.55891 1.5063e-06)
(9.9749 -0.62352 1.4978e-06)
(10.2279 -0.60493 4.0228e-06)
(10.1049 -0.2506 4.0064e-06)
(10.0602 -0.1705 1.9439e-06)
(10.0355 -0.1116 1.2759e-06)
(10.0209 -0.070772 1.0628e-06)
(10.0117 -0.044035 8.2457e-07)
(10.0061 -0.026727 5.8831e-07)
(9.9973 -0.026945 6.0015e-07)
(9.9892 -0.019868 6.101e-07)
(9.9845 -0.0076231 6.1522e-07)
(9.9844 0.0064542 6.1567e-07)
(9.989 0.018251 6.0803e-07)
(9.9963 0.024587 6.0122e-07)
(10.0042 0.024047 5.9106e-07)
(10.0096 0.041041 1.1418e-06)
(10.0195 0.067095 1.9637e-06)
(10.0379 0.10674 4.6108e-06)
(10.0715 0.16608 8.1368e-06)
(10.1353 0.25435 1.2789e-05)
(10.2532 0.3789 1.6456e-05)
(10.4703 0.52681 1.5892e-05)
(10.8115 0.64148 1.3418e-05)
(11.2175 0.54125 1.1619e-05)
(11.5022 0.29327 9.3645e-06)
(11.5599 0.0037913 7.6536e-06)
(11.4355 -0.21276 6.4313e-06)
(11.2492 -0.29481 5.4977e-06)
(11.0828 -0.32226 4.6802e-06)
(10.942 -0.3259 3.9709e-06)
(10.8181 -0.31556 3.997e-06)
(10.7086 -0.29575 6.5689e-06)
(10.612 -0.27206 9.6278e-06)
(10.5266 -0.24749 1.0245e-05)
(10.4513 -0.22234 1.1742e-05)
(10.384 -0.19896 1.176e-05)
(10.3238 -0.17725 9.3396e-06)
(10.2716 -0.1547 8.9868e-06)
(10.2269 -0.13273 1.0662e-05)
(10.189 -0.11254 9.5318e-06)
(10.0952 -0.1135 3.4452e-07)
(9.845 -0.16696 1.2119e-08)
(9.4955 -0.047843 4.0728e-10)
(9.6247 0.016703 4.7053e-10)
(9.7596 0.091035 1.5778e-08)
(9.9792 0.095029 3.058e-07)
(10.1055 0.089206 9.0138e-06)
(10.1284 0.10496 9.6834e-06)
(10.1548 0.12159 8.2713e-06)
(10.1869 0.13886 8.8228e-06)
(10.2249 0.15583 9.1708e-06)
(10.2689 0.17351 9.2423e-06)
(10.3201 0.19177 8.9835e-06)
(10.3811 0.2107 8.3429e-06)
(10.455 0.22934 8.9574e-06)
(10.545 0.24844 1.0155e-05)
(10.6566 0.26588 1.2294e-05)
(10.7985 0.27846 1.4831e-05)
(10.9771 0.27016 1.7923e-05)
(12.2333 1.5084 2.4954e-07)
(11.3072 -0.13903 0.00013189)
(11.3355 -0.017496 0.00013098)
(11.2651 0.082131 0.00014322)
(11.142 0.14144 0.00015504)
(11.0038 0.16695 0.00016411)
(10.8735 0.17075 0.0001727)
(10.7588 0.16474 0.00018146)
(10.6572 0.15476 0.00018948)
(10.5674 0.14306 0.00019653)
(10.488 0.13085 0.00020233)
(10.4179 0.1188 0.00020733)
(10.3558 0.10703 0.00021164)
(10.301 0.095361 0.00021534)
(10.2531 0.083726 0.00021851)
(10.212 0.072623 0.00022119)
(10.1771 0.061823 0.00022361)
(10.0027 -0.015224 3.9042e-07)
(9.9992 -0.015514 4.0324e-07)
(9.9961 -0.011777 4.139e-07)
(9.9943 -0.0051583 4.1986e-07)
(9.9941 0.0025682 4.1961e-07)
(9.9957 0.0091001 4.1203e-07)
(9.9984 0.012778 4.0287e-07)
(10.0013 0.012765 3.9124e-07)
(10.0037 0.0092836 4.3131e-05)
(10.0106 0.017439 6.3111e-05)
(10.0228 0.029493 8.2753e-05)
(10.043 0.047535 0.00010165)
(10.076 0.074052 0.00011955)
(10.1292 0.11206 0.00013669)
(10.2139 0.16555 0.0001533)
(10.3484 0.2341 0.00016975)
(10.5506 0.30448 0.00018621)
(10.8301 0.35787 0.00018957)
(11.1212 0.30347 0.00020393)
(11.3503 0.17527 0.00020624)
(11.4448 0.029375 0.00020743)
(11.408 -0.088699 0.00021091)
(11.2938 -0.14634 0.0002153)
(11.1612 -0.1653 0.00022066)
(11.0306 -0.16731 0.00022498)
(10.9072 -0.15996 0.0002285)
(10.794 -0.1493 0.00023041)
(10.6913 -0.13729 0.00023157)
(10.5989 -0.12506 0.00023235)
(10.516 -0.11334 0.0002328)
(10.4418 -0.10221 0.00023314)
(10.3755 -0.091241 0.00023325)
(10.3171 -0.080166 0.00023322)
(10.2668 -0.0696 0.00023317)
(10.2239 -0.059512 0.00023332)
(10.1902 -0.049695 0.0002552)
(10.1597 -0.093367 3.111e-05)
(10.0778 -0.093869 2.1985e-05)
(9.8675 -0.13695 2.1753e-05)
(9.5771 -0.038876 2.1821e-05)
(9.6856 0.012426 2.1794e-05)
(9.7958 0.073678 2.1892e-05)
(9.9799 0.078071 2.182e-05)
(10.088 0.073636 2.8048e-05)
(10.1501 0.051272 0.00024731)
(9.3942 0.22809 1.58e-06)
(9.3843 -0.04656 1.5975e-06)
(9.4269 -0.26077 1.5466e-06)
(9.4959 -0.48961 1.4515e-06)
(9.62 -0.73893 1.3139e-06)
(9.9111 -0.83935 1.2645e-06)
(10.2012 -0.83131 2.4757e-06)
(10.4268 -0.58038 2.0668e-05)
(10.4535 -0.75754 1.0539e-05)
(10.617 -0.64094 1.8662e-05)
(10.7159 -0.42535 5.9674e-05)
(10.7663 -0.26456 0.00019636)
(10.2144 -0.17224 0.00015199)
(10.1327 -0.11751 0.00013616)
(10.081 -0.078303 0.00011954)
(10.0478 -0.05034 0.00010247)
(10.0267 -0.031625 8.3891e-05)
(10.0135 -0.019272 6.4105e-05)
(10.0054 -0.011087 4.3383e-05)
(11.0263 -0.25409 0.00017082)
(7.0263 1.8925 1.6527e-07)
(2.8574 1.5828 8.1376e-08)
(5.003 2.3901 1.165e-07)
(8.4131 1.7288 2.5644e-07)
(10.6345 1.0886 6.5768e-07)
(10.9236 -0.47301 4.0507e-05)
(11.2004 -0.2778 0.00010394)
(10.8492 3.2456 3.2262e-07)
(11.3434 -0.30085 3.7559e-05)
(7.6592 1.9127 1.8789e-07)
(10.4873 1.18 4.1371e-07)
(11.5652 -0.42603 6.9756e-06)
(11.2894 -0.57088 1.3624e-05)
(11.1048 -0.50988 2.5311e-05)
(10.7974 -0.71183 1.3275e-05)
(10.6104 -0.93513 6.6052e-06)
(10.2787 -1.1172 1.6607e-06)
(9.8683 -1.1685 1.0486e-06)
(9.4442 -1.0383 1.1285e-06)
(9.2012 -0.71366 1.2639e-06)
(9.0795 -0.35936 1.3706e-06)
(9.0278 -0.017011 1.426e-06)
(9.1077 0.39323 1.3431e-06)
(9.1817 0.82862 1.0748e-06)
(8.961 3.5668 4.7481e-07)
(8.2437 2.5914 6.1324e-07)
(8.9928 1.3769 8.7526e-07)
(6.4723 1.5042 1.0805e-07)
(10.0637 1.5086 2.0768e-07)
(10.9955 -0.80651 8.3557e-06)
(11.4484 0.47061 3.5924e-07)
(11.9811 0.96902 2.0866e-07)
(11.2669 -0.87246 4.8373e-06)
(11.5878 -0.83697 2.5758e-06)
(10.8405 -1.134 3.9758e-06)
(11.2214 -1.3306 2.1743e-06)
(11.6001 -1.5066 1.1307e-06)
(10.4866 -1.4677 1.0534e-06)
(10.9328 -1.8864 6.3912e-07)
(8.761 0.61977 1.1565e-06)
(9.9042 -1.6486 7.6894e-07)
(10.1313 -2.311 5.4742e-07)
(8.5171 0.086136 1.2053e-06)
(8.5154 -0.46571 1.1316e-06)
(8.1974 1.0806 9.8742e-07)
(9.2051 -1.5399 8.6193e-07)
(8.7269 -1.0841 1.0063e-06)
(8.9474 -2.3358 6.5963e-07)
(7.6693 0.2952 1.0432e-06)
(7.6752 -0.67818 9.6003e-07)
(8.007 -1.6956 8.3934e-07)
(8.3966 -3.7976 5.162e-07)
(6.2063 0.80204 8.8927e-07)
(6.0992 -1.1967 8.0556e-07)
(6.5227 -2.8753 6.9009e-07)
(10.0051 0.0034609 4.381e-05)
(10.0142 0.0063549 6.4408e-05)
(10.0301 0.010673 8.4293e-05)
(10.0561 0.017257 0.00010303)
(10.097 0.02672 0.00012034)
(10.1602 0.039889 0.00013698)
(10.2562 0.057466 0.00015367)
(10.3963 0.078492 0.00017046)
(10.5873 0.098044 0.00018777)
(10.8282 0.11163 0.00020385)
(11.0772 0.097555 0.00021898)
(11.2777 0.063056 0.00023169)
(11.3776 0.020179 0.00024063)
(11.3704 -0.018677 0.00024652)
(11.2899 -0.040789 0.00025024)
(11.1772 -0.050949 0.0002519)
(11.0574 -0.053778 0.00025259)
(10.9407 -0.053772 0.00025227)
(10.8305 -0.05189 0.00025143)
(10.7286 -0.049075 0.00025021)
(10.6354 -0.045687 0.00024881)
(10.5506 -0.042013 0.00024733)
(10.4739 -0.038253 0.00024588)
(10.4051 -0.034396 0.00024448)
(10.3442 -0.030388 0.00024311)
(10.2911 -0.026431 0.00024193)
(10.2454 -0.022671 0.00024087)
(10.2094 -0.019086 0.00026153)
(10.1571 -0.015483 0.00023943)
(10.1418 -0.040043 0.00023324)
(10.1225 -0.073599 7.9745e-06)
(10.059 -0.069506 -6.2843e-08)
(9.9018 -0.10096 -3.0511e-07)
(9.677 -0.026595 -2.7812e-07)
(9.7631 0.0049644 -2.8076e-07)
(9.8419 0.05197 -1.1633e-07)
(9.9829 0.056338 -1.475e-07)
(10.066 0.055886 5.0873e-06)
(10.1108 0.039467 0.00022646)
(10.1482 0.013843 0.00023952)
(10.1993 0.017852 0.00026149)
(10.2343 0.021341 0.00024061)
(10.2789 0.024927 0.0002416)
(10.3308 0.028622 0.00024279)
(10.39 0.032315 0.00024417)
(10.4569 0.035956 0.00024565)
(10.5313 0.039543 0.00024718)
(10.6135 0.043076 0.00024867)
(10.7037 0.046539 0.00025003)
(10.8021 0.049701 0.00025116)
(10.909 0.052404 0.00025223)
(11.0239 0.052032 0.00025346)
(11.1411 0.047421 0.00025323)
(11.2502 0.034515 0.00025208)
(11.3305 0.0087318 0.00024964)
(11.3487 -0.030038 0.00024467)
(11.2662 -0.074179 0.00023302)
(11.0823 -0.1151 0.00022009)
(10.8249 -0.066726 0.00020609)
(10.5926 -0.067621 0.00017344)
(10.4107 -0.064909 0.0001573)
(10.2731 -0.054015 0.00014631)
(10.1737 -0.040114 0.00013362)
(10.1068 -0.027928 0.00011923)
(10.063 -0.018534 0.00010292)
(10.035 -0.011823 8.4745e-05)
(10.0175 -0.0072749 6.5127e-05)
(10.007 -0.0041537 4.4422e-05)
(10.0015 -0.0019364 6.3876e-07)
(10.0012 -0.0052356 2.3575e-07)
(10.0007 -0.0072463 -2.1672e-05)
(9.9999 -0.0075702 -2.1677e-05)
(9.9993 -0.0061984 -2.167e-05)
(9.9988 -0.0035065 -2.1667e-05)
(9.9988 -0.00025239 -2.1667e-05)
(9.9991 0.0026438 -2.1608e-05)
(9.9996 0.0044188 -2.1556e-05)
(10.0002 0.0046759 -2.1544e-05)
(10.0007 0.0034906 3.8809e-07)
(10.0009 0.0012874 7.0052e-07)
(5.818 -4.4652 5.6393e-07)
(8.5373 -6.3403 3.5297e-07)
(11.7941 -5.8513 2.4899e-07)
(13.0112 -4.7356 1.9564e-07)
(13.1246 -2.2482 1.5457e-07)
(10.8897 -1.6194 1.2028e-07)
(4.1105 -1.2584 6.0744e-08)
(-1.4944 0.21391 2.8373e-08)
(-3.1379 0.38022 1.2436e-08)
(1.6946 2.0318 3.565e-08)
(11.1899 1.9643 9.7707e-08)
(13.0562 2.2594 1.2848e-07)
(12.8808 5.3271 1.9569e-07)
(11.1288 6.5771 2.5255e-07)
(5.0557 1.5087 7.4824e-07)
(4.8374 -1.8017 6.7039e-07)
(7.308 0.44834 8.3564e-09)
(12.8311 1.0583 6.3734e-08)
)
;

boundaryField
{
    bottom
    {
        type             symmetry;
    }
    inlet
    {
        type             fixedValue;
        value            uniform (10 0 0);
    }
    object
    {
        type             noSlip;
    }
    outlet
    {
        type             zeroGradient;
    }
    side1
    {
        type             empty;
    }
    side2
    {
        type             empty;
    }
    top
    {
        type             symmetry;
    }
}

// ************************************************************************* //
