/*--------------------------------*- C++ -*----------------------------------*\\
| =========                 |                                                 |
| \\      /  F ield         | OpenFOAM: The Open Source CFD Toolbox           |
|  \\    /   O peration     | Version:  v1706                                 |
|   \\  /    A nd           | Web:      www.OpenFOAM.com                      |
|    \\/     M anipulation  |                                                 |
\\*---------------------------------------------------------------------------*/
FoamFile
{
    version     2.0;
    format      ascii;
    class       surfaceScalarField;
    location    "0.35";
    object      mdot_f;
}
// * * * * * * * * * * * * * * * * * * * * * * * * * * * * * * * * * * * * * //

dimensions      [1 0 -1 0 0 0 0]


internalField   nonuniform List<scalar>
906
(
-0.024997
0.018291
0.0038531
0.0028536
-0.0046058
-0.019437
-0.00095424
-0.030438
0.034171
0.019581
-0.023314
0.035357
-0.031924
-0.033871
0.0056887
0.064677
-0.06383
-0.0065357
0.002788
-0.065089
0.067989
-0.038684
0.036803
-0.0016171
0.0034982
-0.022612
0.015826
-0.031897
-0.069983
0.043384
-0.0089767
0.035576
-0.0021117
0.0018532
-0.069725
0.055562
-0.011044
0.013616
-0.058134
0.015902
-0.0056811
0.045341
-0.024149
-0.017623
0.0082269
0.033545
-0.029632
0.035283
-0.0298
0.04647
-0.011426
0.075509
-0.063905
0.0042975
0.00023856
0.071771
0.0034996
-0.0049785
-0.069971
0.021343
-0.014083
-0.0072599
-0.0029421
0.024285
0.014596
-0.021525
-0.0071541
0.036903
-0.01924
0.016997
-0.034661
0.039565
0.028573
-0.031234
0.038006
-0.021853
-0.029246
0.013093
0.041907
0.025701
-0.029602
0.032489
-0.0098213
-0.02067
0.019821
0.044233
-0.067628
0.052991
-0.0060333
-0.067546
-0.0021934
-0.0028994
0.0046871
0.018906
-0.020694
0.0055062
0.0028354
-0.011241
0.049408
-0.031664
0.024279
-0.042023
0.051563
0.011461
-0.050233
0.012233
0.011564
-0.040993
0.064141
0.012209
-0.025957
-0.041116
0.02608
-0.041028
-0.016852
0.0086297
0.044959
-0.0096941
-0.043894
0.035581
-0.0036636
-0.023288
0.0023578
0.037911
0.058021
-0.010704
0.036188
0.0097054
-0.019598
-0.007204
0.017096
-0.017501
0.024934
0.0022724
-0.02321
-0.013889
-0.0036519
0.058324
0.0094681
0.023241
0.00018843
-0.030634
0.020896
0.019442
0.047033
0.0070221
-0.007585
-0.041133
0.046526
0.015503
0.0060886
0.0027062
0.0027043
0.002898
-0.04122
-0.024375
0.00056799
-0.010064
-0.048393
0.026916
0.034743
0.0096332
0.0090248
0.040351
0.0019547
-0.013493
0.041775
0.0024121
-0.0022687
-0.0048778
0.0063356
0.041976
0.00081134
0.0085263
-0.039034
0.012075
0.042785
0.0074031
0.021643
0.0051392
0.043086
-0.0019425
-0.046283
0.039706
0.0022356
0.0011
0.04298
-0.00099387
0.039164
0.0016423
0.00090602
0.042518
-0.00044436
0.038838
0.0012321
0.00039333
0.042365
-0.00024003
0.038905
0.00032611
0.00036805
0.042217
-0.00021959
0.038979
0.00029438
-8.2502e-05
0.042505
-0.00020548
0.039171
-0.00027426
-8.5242e-05
0.042372
0.00021739
0.039366
-0.00028025
-3.7563e-05
0.042695
-0.00028504
0.039704
-0.00037583
-5.3018e-05
-3.9065e-05
0.042787
0.039606
4.506e-05
-0.069366
0.0064706
0.065684
0.0054513
-0.066241
-0.0042988
-0.067622
0.003707
0.0034646
-0.0037748
-0.065931
0.0026789
-0.066836
-0.0644
-0.0037283
-0.065255
-0.00292
0.063682
0.0017417
0.068431
0.0073266
0.06357
0.0029181
0.062065
0.0005113
0.06117
0.00045029
0.06075
0.0001804
0.060287
0.00024281
0.060351
-0.00026891
0.060804
-0.00023609
0.060884
-0.00036448
0.060571
0.0002739
0.070825
-0.00020177
-0.00020713
0.040015
-0.00010215
0.042688
-0.00066754
0.061136
-0.068049
0.068588
0.0031681
-0.067394
0.002024
-0.002058
0.0014032
-0.066739
-0.0024264
-0.066468
-0.0023179
-0.066039
-0.06585
-0.0017225
0.069554
0.010414
0.064094
0.0038423
0.064288
0.0020412
0.063712
0.002219
0.063397
0.0015464
0.062981
0.00074283
0.062837
0.00043772
0.063157
-0.00059356
0.063584
-0.00070712
0.063235
-2.7183e-05
0.062962
0.00031819
-0.00063594
0.063391
0.072805
0.074767
0.0053639
0.07446
0.0032255
0.072852
0.0021192
0.072242
0.0010604
0.071818
0.00060482
0.071651
0.00040946
0.071635
-0.00025254
0.071626
-0.00022688
0.071044
0.00021751
0.071434
-0.00011643
0.071704
-0.00093723
0.0056793
0.069379
0.057078
-0.077031
0.021807
0.0088514
0.03925
-0.070009
-0.0013432
-0.067969
0.0011285
-0.0674
0.0014542
-0.066798
0.00080117
-0.0010462
0.00063559
-0.066387
-0.0014114
-0.066374
-0.0015945
-0.066285
-0.0011015
-0.066532
-0.00085194
-0.0661
0.065709
-0.066376
-0.00018512
0.065
-0.0010132
0.064049
-0.0019692
0.063721
-0.0034001
0.061214
-0.0040286
0.055142
-0.0053541
0.050215
-0.0026576
0.052621
0.0036827
0.050664
0.0046614
0.066458
0.010286
0.06702
0.0089055
0.071355
0.0060789
0.071559
0.0036381
0.07058
0.0030202
0.071119
0.0016802
0.071219
0.0014466
0.071426
0.00053583
0.071464
0.00039951
0.071648
-0.00077744
0.071774
-0.0008328
0.071515
0.00023138
0.071514
0.00031976
0.071616
-0.00073806
0.0004565
-0.00038568
0.071545
0.00034718
0.0635
0.00029746
0.040065
-0.00013926
0.043124
-0.00011607
0.061113
0.071564
2.329e-05
-0.0041245
0.042314
0.013485
0.048074
0.045789
0.037075
0.036129
0.031467
0.023066
0.021914
0.027327
0.034989
0.028003
0.0349
-0.070077
-0.00099095
-0.068699
-0.00024984
-0.067729
0.00048472
-0.067269
0.0003409
-0.066918
0.00028473
-0.00085886
-0.06623
0.00017059
-0.00058361
-0.066662
-0.00033307
-0.066625
-1.7381e-05
-0.0666
4.5788e-05
-0.066596
0.00021569
-0.06627
0.00041706
-0.066578
0.0661
-0.066587
0.00090425
0.06575
0.00016481
0.065239
-0.00050145
0.064925
-0.0016556
0.063729
-0.0022044
0.062536
-0.0028351
0.059662
-0.0024799
0.057744
-0.00074046
0.057082
0.0043454
0.060985
0.00075833
0.066319
0.0049515
0.070039
0.005185
0.072093
0.0040259
0.072667
0.0030638
0.073625
0.0020615
0.073523
0.0017824
0.073759
0.0012107
0.074248
4.6981e-05
0.075213
-0.00056571
0.074509
-7.3711e-05
0.0742
-0.00052378
0.074668
-0.00023619
0.07435
0.00063822
0.073637
-2.5447e-05
0.074179
-0.00092778
0.00049369
-0.00014435
0.07383
0.00039117
0.071648
0.00021256
0.063679
-5.2305e-06
0.040282
-3.1269e-05
0.04315
8.5488e-05
0.060996
-0.00022104
0.071871
-0.074489
-0.00014608
0.074414
-0.073625
-0.00084078
-0.074516
-4.5731e-05
-0.074569
-6.4062e-05
-0.074266
-8.54e-05
-0.074378
-0.00011427
-0.074474
-0.00015719
-0.07451
0.00044623
-0.07464
0.00073405
-0.074858
0.0012792
-0.074947
0.0022077
-0.074597
0.0028757
0.002538
-0.036551
-0.0028175
0.066868
-0.065915
-0.0059314
0.069777
0.0013882
0.071518
0.0017593
0.072304
0.0017518
0.073682
0.0014975
0.074692
0.0011975
0.074772
0.0011993
0.075209
0.00029695
0.075765
-0.00010912
0.075689
-8.1991e-05
0.075635
-6.0132e-05
0.075594
-4.4361e-05
0.075563
-3.2977e-05
0.075542
-2.4319e-05
0.074718
-1.7492e-05
0.074586
-1.3755e-05
-0.00013107
0.00057979
-0.066678
-0.00012796
-0.066665
-9.9167e-05
-0.066653
-5.3915e-05
-0.066646
-5.3573e-06
-0.066644
0.00037354
-0.066649
0.00045321
-0.066657
0.00053313
-0.066667
0.066531
0.0006776
-0.066676
0.06738
5.5044e-05
0.067449
9.6362e-05
0.066784
0.00016356
0.065798
-0.00066988
0.0647
-0.0011064
0.062622
-0.00075749
0.060872
-0.00072904
0.060341
-0.00021002
0.063162
0.0015244
0.063249
0.00067139
0.066043
0.0021572
0.069002
0.0022267
0.071221
0.0018068
0.073045
0.0012398
0.073757
0.001349
0.074767
0.00077333
0.076064
-8.6906e-05
0.076184
-7.2792e-05
0.075673
-5.5206e-05
0.075638
-3.878e-05
0.07514
-2.5783e-05
0.074922
-1.7998e-05
0.075576
-1.5597e-05
0.075563
-1.2204e-05
0.074642
-6.7937e-06
0.074502
-4.456e-06
0.0004159
-0.00050879
0.074595
1.3946e-05
0.074232
2.3785e-05
0.071638
2.4993e-05
0.063677
2.1426e-06
0.040305
-2.8264e-05
0.043181
-0.0005673
0.061535
-0.00046534
0.071769
-0.00054976
0.074498
0.074047
-1.055e-05
-0.0011722
0.025863
0.014356
0.032546
0.019959
0.031472
0.022763
0.028662
0.018567
0.02611
0.02329
0.030266
0.022061
0.029231
0.022759
0.031962
0.008885
0.035935
-0.0022442
0.043091
-0.0032957
0.045285
0.050793
-0.0010972
-0.068062
-0.00047512
-0.067979
-0.00033312
-0.067455
-3.8992e-05
-0.06714
2.6381e-05
-0.066775
-8.1198e-05
-0.066817
0.00021287
0.00045189
-0.066689
-0.017858
0.053127
0.015523
-0.0087999
-0.015557
0.0068101
-0.0080318
0.0020331
-0.013231
-0.010115
-0.02873
-0.042548
0.046008
-0.018581
0.021613
-0.0344
-0.026225
-0.0006922
-0.0060174
-0.042341
-0.018386
-0.023575
-0.036655
-0.027696
-0.028555
-0.036701
-0.033336
-0.025093
-0.016033
0.040543
-0.019124
0.039027
-0.020051
0.030158
-0.018646
0.028861
-0.017733
0.025198
-0.013367
0.024297
-0.0082717
0.026376
-0.0036744
0.027949
0.030415
0.032889
0.0026109
-0.026895
-0.026187
-0.0067919
-0.019894
-0.011713
-0.032531
-0.024017
0.039089
-0.023639
-0.045981
0.0035047
0.032495
-0.026741
-0.027295
0.036754
-0.021366
0.036254
-0.026242
0.029742
-0.02095
-0.026101
0.0052873
0.027739
0.026331
-0.01842
-0.021623
0.0091724
0.024064
0.012163
0.023385
-0.00057776
-0.01573
0.022508
0.020729
-0.016598
0.017483
0.0048514
0.018635
0.011283
0.016954
0.015414
-0.02083
0.0090672
0.0032015
0.0082793
0.013261
0.0068944
0.0078445
0.067358
-0.06668
0.067413
0.067509
0.067673
0.067003
0.065896
0.065139
0.06441
0.0642
0.065724
0.066396
0.068553
0.07078
0.072586
0.073826
0.075175
0.075948
0.075862
0.075789
0.075734
0.075695
0.075669
0.075651
0.075635
0.075623
0.075616
0.075612
0.075103
0.00022426
1.4681e-05
8.5846e-06
2.1487e-05
1.6848e-05
-8.0035e-06
-2.3821e-05
-4.0442e-05
-2.5434e-05
-2.1629e-05
-0.00073498
-0.075421
-0.075431
-0.075445
-0.075463
-0.075487
-0.07552
-0.075564
-0.075624
-0.075706
-0.075815
-0.075519
-0.074319
-0.073122
-0.071624
-0.069872
-0.068113
-0.066725
-0.072656
-0.057134
-0.058231
-0.064264
-0.066457
-0.066933
-0.067266
-0.067305
-0.067278
-0.06736
-0.067147
-0.066695
-2.8089e-05
-5.0378e-05
-6.2056e-05
-6.0771e-05
-4.7564e-05
-2.6647e-05
-4.0926e-06
1.3901e-05
2.3248e-05
2.2588e-05
1.3568e-05
0.015758
-0.0079138
0.024826
0.037918
0.028097
0.031602
0.0075842
-0.0041291
-0.002096
0.0042397
0.001971
-0.021343
-0.020775
-0.023592
0.0010194
)
;

boundaryField
{
    bottom
    {
        type             calculated;
        value            uniform 0;
    }
    inlet
    {
        type             calculated;
        value            nonuniform List<scalar>
12
(
-0.066667
-0.066667
-0.066667
-0.066667
-0.066667
-0.066667
-0.066667
-0.066667
-0.066667
-0.066667
-0.066667
-0.066667
)
;
    }
    object
    {
        type             calculated;
        value            uniform 0;
    }
    outlet
    {
        type             calculated;
        value            nonuniform List<scalar>
12
(
0.074879
0.074686
0.07476
0.074493
0.071753
0.061551
0.043197
0.040328
0.06368
0.071624
0.074238
0.074805
)
;
    }
    side1
    {
        type             calculated;
        value            uniform 0;
    }
    side2
    {
        type             calculated;
        value            uniform 0;
    }
    top
    {
        type             calculated;
        value            uniform 0;
    }
}

// ************************************************************************* //
