/*--------------------------------*- C++ -*----------------------------------*\\
| =========                 |                                                 |
| \\      /  F ield         | OpenFOAM: The Open Source CFD Toolbox           |
|  \\    /   O peration     | Version:  v1706                                 |
|   \\  /    A nd           | Web:      www.OpenFOAM.com                      |
|    \\/     M anipulation  |                                                 |
\\*---------------------------------------------------------------------------*/
FoamFile
{
    version     2.0;
    format      ascii;
    class       volScalarField;
    location    "0.35";
    object      p;
}
// * * * * * * * * * * * * * * * * * * * * * * * * * * * * * * * * * * * * * //

dimensions      [0 2 -2 0 0 0 0]


internalField   nonuniform List<scalar>
479
(
-14.758
-22.995
-20.1216
-11.2659
14.669
15.3339
1.7223
0.55414
10.1971
11.2469
-7.0507
-6.4081
19.1254
16.9331
15.2981
-4.084
-4.0069
-3.3923
49.8993
28.2492
34.0498
-12.6
-10.6296
-2.458
-9.2745
-20.0882
8.4321
8.2678
9.9731
-8.8716
-15.0914
-10.5997
-11.1814
-8.6467
-6.558
-9.7231
-5.764
-10.5315
-10.7592
-11.2557
-7.06
-7.1284
-9.7449
14.3891
15.6068
16.9408
-7.9617
14.3692
10.0499
14.4474
6.0447
11.8905
0.26474
-7.2655
-23.6516
-16.063
6.0722
-1.6405
17.3737
17.2447
-13.9864
-35.513
-30.1647
-10.1852
-23.6638
-2.9995
0.48448
-2.8473
-5.0844
0.91461
1.181
0.47295
0.6077
0.31707
0.38433
0.2064
0.32347
0.11331
0.20332
0.057939
0.12709
0.0079241
0.07497
0.026428
0.070949
0.011749
0.029474
15.1162
14.5173
14.4023
13.998
13.9175
14.1618
13.814
-4.0099
-2.3262
-0.60767
-0.15685
-0.15796
-0.13059
-0.084697
-0.033889
-0.037575
0.0043238
-0.019991
-6.3845
0.016933
0.0093508
0.016225
13.9443
13.6084
13.3985
13.6071
13.6709
13.5785
-6.2622
-0.72722
0.3488
0.089957
-0.044891
0.043321
0.046274
0.073376
0.069971
0.045109
-0.020561
0.018051
-4.5187
-3.3699
-2.0556
-1.1735
-0.76951
-0.53939
-0.37671
-0.24177
-0.16954
-0.11665
-0.10851
-0.050314
14.4759
13.2272
12.5293
13.221
13.169
13.1189
13.0852
13.0655
13.2705
13.414
13.4668
13.4253
13.3177
13.3845
13.47
13.558
13.5841
13.3167
12.0259
8.7305
2.8007
-2.4729
-5.6011
-5.1318
-2.4229
-0.90923
-0.55141
-0.46017
-0.30552
-0.19188
-0.090827
-0.055397
-0.071458
-0.085382
-0.031837
-0.014415
0.045968
0.03349
0.016253
0.023712
-0.050025
16.5478
16.1946
15.4394
14.747
14.0231
11.6807
9.6465
11.9511
12.3511
12.5959
12.751
12.8484
12.9095
13.0554
13.1953
13.2976
13.3431
13.3291
13.2713
13.1949
13.1868
13.1624
13.0994
12.9503
12.6151
11.8927
10.3931
7.672
3.6596
-0.29075
-2.7503
-3.086
-2.0332
-1.0161
-0.5565
-0.3931
-0.26399
-0.15061
-0.061906
-0.024836
-0.022488
-0.016587
0.0097136
0.020414
0.018574
-0.017744
0.037494
0.04826
0.018066
0.0048706
-0.047939
-0.029915
-0.049328
-0.065742
-0.11394
-0.16219
-0.22801
-0.33217
-0.48825
-0.68985
-0.9833
-1.4674
-2.257
-3.241
-10.5784
-1.1273
-2.5028
-3.0249
-2.7505
-2.1526
-1.5751
-1.1432
-0.84275
-0.62403
-0.45606
-0.33163
-0.24255
-0.17641
-0.12584
-0.090083
-0.063388
12.9445
13.051
13.1545
13.2336
13.2745
13.2748
13.2438
13.1974
13.1541
13.1265
13.0733
12.9757
12.8005
12.4899
11.9488
11.0196
9.4937
7.1949
4.1724
1.1162
-1.0157
-1.8245
-1.6241
-1.0993
-0.72321
-0.53244
-0.40558
-0.29408
-0.20615
-0.14832
-0.11471
-0.091817
-0.067254
-0.04566
-0.035554
-0.028103
0.012789
-0.031893
0.0074033
0.034533
0.014167
0.025445
-0.012107
-0.0084756
-0.041222
18.336
18.0199
17.5293
16.5407
15.1621
12.2413
9.5025
8.0645
7.4387
6.3491
6.2506
5.7862
11.0591
11.7494
12.1964
12.4877
12.6746
12.7915
12.8578
2.8865
-14.1604
-30.1193
-20.8511
-13.9238
-12.3029
3.674
0.14065
4.3096
-1.9758
-18.0031
-9.1631
-4.8035
-1.6081
1.1426
4.2003
5.502
8.489
12.4512
16.4064
18.9284
20.3828
21.0746
21.0789
20.3856
22.1085
22.6854
22.0161
-28.763
-13.5188
1.6295
-9.5741
-23.7082
-1.4789
-5.7026
2.6724
-1.403
-7.1579
5.8433
0.60731
23.8367
11.4507
8.2102
25.2566
24.4726
27.383
17.7616
22.1657
18.8472
30.7644
30.4174
26.8293
17.1214
39.4409
39.1758
33.2317
13.1288
13.0872
13.0083
12.8702
12.6351
12.2425
11.6033
10.5981
9.091
7.0075
4.3993
1.7779
-0.21173
-1.2064
-1.334
-1.0413
-0.72763
-0.52351
-0.3891
-0.28003
-0.19098
-0.12699
-0.08636
-0.060325
-0.038499
-0.019884
-0.0088673
-0.003145
0.00012828
-0.019901
0.010817
-0.025819
-0.0025826
0.015873
0.0073746
0.021187
-0.018637
-0.0058966
-0.023775
-0.015481
-0.034782
-0.058106
-0.08787
-0.12845
-0.18263
-0.25538
-0.35469
-0.48951
-0.66709
-0.89802
-1.2029
-1.5984
-2.045
-2.3875
-2.3417
-1.5813
0.095595
2.5544
5.2624
7.6146
9.3324
10.5593
11.4061
11.9723
12.3419
12.5788
12.7262
12.8097
12.8431
12.8844
12.9584
13.0495
13.1387
13.2085
13.2475
13.2533
13.2326
13.1982
13.1648
13.1449
49.6851
16.2045
-32.238
-63.4681
-73.3215
-60.7234
-45.6169
-36.9313
-34.9908
-39.0637
-46.9503
-51.4015
-49.5343
-11.818
56.4567
56.7784
1.9131
-16.6832
)
;

boundaryField
{
    bottom
    {
        type             symmetry;
    }
    inlet
    {
        type             zeroGradient;
    }
    object
    {
        type             zeroGradient;
    }
    outlet
    {
        type             fixedValue;
        value            uniform 0;
    }
    side1
    {
        type             empty;
    }
    side2
    {
        type             empty;
    }
    top
    {
        type             symmetry;
    }
}

// ************************************************************************* //
