/*--------------------------------*- C++ -*----------------------------------*\\
| =========                 |                                                 |
| \\      /  F ield         | OpenFOAM: The Open Source CFD Toolbox           |
|  \\    /   O peration     | Version:  v1706                                 |
|   \\  /    A nd           | Web:      www.OpenFOAM.com                      |
|    \\/     M anipulation  |                                                 |
\\*---------------------------------------------------------------------------*/
FoamFile
{
    version     2.0;
    format      ascii;
    class       volVectorField;
    location    "0.35";
    object      U;
}
// * * * * * * * * * * * * * * * * * * * * * * * * * * * * * * * * * * * * * //

dimensions      [0 1 -1 0 0 0 0]


internalField   nonuniform List<vector>
479
(
(5.4171 -1.7971 4.8379e-07)
(7.0071 -1.4444 4.8767e-07)
(10.5673 -0.079653 4.2647e-07)
(11.902 -0.23344 5.1674e-07)
(9.8305 0.20667 3.7398e-07)
(9.7252 0.092536 2.3413e-07)
(5.5236 -0.12445 1.0279e-06)
(5.4208 -0.28161 1.0588e-06)
(10.3065 -0.44698 7.5151e-06)
(10.2185 -0.35305 8.461e-06)
(11.789 -0.27085 2.3415e-05)
(11.7136 -0.038085 2.2109e-05)
(9.3478 0.38341 3.8996e-07)
(9.5726 0.40444 5.0933e-07)
(9.8005 0.41239 7.9482e-07)
(11.6028 -0.017441 6.6158e-05)
(11.5651 0.049686 6.5655e-05)
(11.5804 -0.20948 7.7657e-05)
(6.3042 3.219 2.4835e-07)
(8.6186 5.6648 2.5916e-07)
(6.7532 1.8972 2.6136e-07)
(12.064 -0.98633 2.0129e-06)
(11.8884 -0.86514 4.8313e-06)
(10.977 -3.0075 2.4595e-07)
(11.6741 -2.4703 4.4416e-07)
(12.2581 -1.2366 4.0248e-07)
(10.5138 -0.42564 7.4288e-05)
(10.5364 -0.24288 0.00021581)
(10.3626 -0.24075 0.00019037)
(5.0438 1.8384 2.4736e-06)
(1.9767 1.8397 1.8402e-06)
(11.8069 -0.049664 7.054e-06)
(11.8139 0.035814 1.0551e-05)
(11.8495 -0.56816 1.3232e-05)
(3.0881 -1.0869 7.8945e-07)
(11.7971 -0.017 6.8624e-07)
(11.6517 0.63007 8.3717e-07)
(11.7901 1.0218 6.0302e-07)
(11.1327 0.56156 6.097e-06)
(8.783 1.2203 3.7008e-06)
(7.8234 1.2756 3.537e-06)
(10.8105 0.56719 7.9499e-06)
(11.6585 0.20737 1.0513e-05)
(9.552 2.0908 4.9782e-07)
(9.6116 2.4692 4.8302e-07)
(9.2633 1.9056 4.7668e-07)
(11.5047 -0.32879 6.7134e-07)
(9.8499 1.4711 5.6059e-07)
(10.0741 1.8912 5.3268e-07)
(9.9406 0.77487 1.254e-06)
(10.7516 1.3434 9.9834e-07)
(10.3325 1.0255 1.2407e-06)
(11.315 1.0646 9.9173e-07)
(11.6286 1.4877 6.7282e-07)
(12.2591 -0.72827 4.3789e-07)
(12.2819 1.3508 4.392e-07)
(10.4291 2.4247 5.0356e-07)
(11.153 1.9895 6.5449e-07)
(9.5643 0.81373 6.2845e-07)
(9.5523 1.1792 5.6351e-07)
(10.5651 -0.66364 4.9291e-07)
(8.3566 -0.69313 4.6989e-07)
(-1.7815 -0.30673 8.9067e-07)
(9.6209 -1.0751 4.8919e-07)
(-2.2048 -0.64072 1.1213e-06)
(3.3968 0.49402 1.7954e-06)
(5.9832 0.35436 2.5571e-06)
(6.581 0.97134 3.1949e-06)
(7.6937 -0.88365 5.4993e-07)
(6.1835 0.15502 2.5628e-06)
(5.6938 -0.037769 1.2016e-06)
(6.299 0.10268 2.6178e-06)
(5.7808 -0.0011514 1.2225e-06)
(6.3493 0.063902 2.6215e-06)
(5.8183 0.028892 1.2366e-06)
(6.3812 0.029626 2.6066e-06)
(5.8394 0.042622 1.2319e-06)
(6.4077 0.0073876 2.5899e-06)
(5.8617 0.04789 1.2266e-06)
(6.4291 -0.0050746 2.5697e-06)
(5.8989 0.045626 1.2049e-06)
(6.4315 -0.013866 2.5336e-06)
(5.9303 0.039454 1.1844e-06)
(6.4502 -0.018588 2.5245e-06)
(5.9689 0.036756 1.1639e-06)
(6.4542 -0.022173 2.4953e-06)
(5.9736 0.039141 1.1493e-06)
(9.7507 -0.083447 2.2047e-07)
(9.8349 0.029791 2.2408e-07)
(9.8419 -0.067629 2.2161e-07)
(9.9 0.0062882 2.2436e-07)
(9.9041 -0.05377 2.2335e-07)
(9.8856 0.10901 2.5155e-07)
(9.9274 0.056304 2.2512e-07)
(10.1261 0.57449 7.3703e-06)
(9.3441 0.40958 6.5581e-06)
(9.2265 0.28108 6.5014e-06)
(9.2025 0.20422 6.4419e-06)
(9.2014 0.1492 6.3795e-06)
(9.1975 0.10952 6.3157e-06)
(9.1923 0.08273 6.252e-06)
(9.1968 0.065896 6.2254e-06)
(9.1911 0.055775 6.1828e-06)
(9.1995 0.047867 6.1713e-06)
(9.1986 0.041558 6.1118e-06)
(11.5602 0.14915 1.6903e-05)
(5.9939 0.03732 1.1393e-06)
(6.461 -0.022001 2.4745e-06)
(9.213 0.038068 6.1475e-06)
(9.8901 -0.1538 2.16e-07)
(9.9348 -0.10496 2.1755e-07)
(9.9631 -0.070133 2.1931e-07)
(9.9445 -0.039301 2.2536e-07)
(9.9416 -0.0033142 2.264e-07)
(9.9559 0.028135 2.2228e-07)
(10.1924 -0.50934 6.3428e-07)
(9.854 -0.35572 6.2879e-07)
(9.6798 -0.25218 6.4253e-07)
(9.6051 -0.18997 6.5118e-07)
(9.5369 -0.14454 6.5634e-07)
(9.5135 -0.11133 6.5313e-07)
(9.4953 -0.0899 6.497e-07)
(9.506 -0.077285 6.5597e-07)
(9.5214 -0.069298 6.6633e-07)
(9.5268 -0.061953 6.6117e-07)
(9.5256 -0.056085 6.56e-07)
(9.5339 -0.052822 6.6644e-07)
(11.384 0.21511 1.6722e-05)
(11.1003 0.21677 1.5687e-05)
(10.9366 0.16559 1.5227e-05)
(10.8676 0.11479 1.5047e-05)
(10.8286 0.078889 1.4867e-05)
(10.8066 0.053401 1.4717e-05)
(10.7876 0.034746 1.456e-05)
(10.7794 0.020783 1.4573e-05)
(10.7749 0.012041 1.4573e-05)
(10.772 0.0044622 1.4446e-05)
(10.7635 0.00039485 1.4356e-05)
(10.7659 -0.0030377 1.4752e-05)
(9.8116 -0.22339 2.1478e-07)
(9.9754 -0.39852 4.4527e-07)
(10.0314 -0.50845 4.4341e-07)
(9.9694 -0.29308 2.549e-07)
(9.9809 -0.19673 2.0719e-07)
(9.9891 -0.13063 2.0845e-07)
(9.9942 -0.085218 2.0995e-07)
(9.9973 -0.054617 2.1163e-07)
(9.9803 -0.046031 2.2119e-07)
(9.9698 -0.02791 2.2743e-07)
(9.9679 -0.0061979 2.2869e-07)
(9.9752 0.01333 2.2429e-07)
(9.9881 0.025118 2.1693e-07)
(9.9804 0.045982 2.267e-07)
(9.9715 0.081955 3.3609e-07)
(9.9655 0.14307 7.4963e-07)
(9.9734 0.24436 1.6058e-06)
(10.026 0.41605 3.2163e-06)
(10.2038 0.65253 4.1415e-06)
(10.6091 0.96297 3.7938e-06)
(11.1239 0.72781 3.625e-06)
(11.5175 0.43907 2.66e-06)
(11.5866 0.11705 2.3947e-06)
(11.2536 -0.11127 2.1428e-06)
(11.0027 -0.087075 2.0495e-06)
(10.8858 -0.038948 1.9948e-06)
(10.8276 -0.016829 1.938e-06)
(10.7894 -0.0044928 1.8951e-06)
(10.7639 0.0082559 1.8663e-06)
(10.7464 0.016827 1.8431e-06)
(10.7443 0.022569 1.9723e-06)
(10.7479 0.026276 2.1372e-06)
(10.7491 0.029248 2.1184e-06)
(10.7416 0.028567 2.0936e-06)
(10.742 0.028307 2.2431e-06)
(10.7432 0.029235 2.3378e-06)
(9.541 -0.049693 6.7312e-07)
(6.0213 0.033898 1.1223e-06)
(6.4669 -0.022259 2.4486e-06)
(9.2162 0.034527 6.106e-06)
(10.7655 -0.0064029 1.4627e-05)
(9.5913 0.11084 2.3191e-07)
(9.6354 -0.11229 2.1919e-07)
(9.7145 -0.27332 2.1435e-07)
(9.7671 -0.42903 2.8735e-07)
(9.8508 -0.60273 3.1672e-07)
(10.0555 -0.64329 3.9529e-07)
(10.297 -0.61111 4.4063e-06)
(10.1302 -0.26057 3.0172e-06)
(10.0779 -0.18181 7.1485e-07)
(10.0473 -0.12205 1.995e-07)
(10.0281 -0.07943 2.0053e-07)
(10.0158 -0.050713 2.0177e-07)
(10.008 -0.031405 2.0317e-07)
(9.9989 -0.033985 2.1344e-07)
(9.9906 -0.029282 2.2318e-07)
(9.9852 -0.018914 2.2958e-07)
(9.9842 -0.0059754 2.3095e-07)
(9.9876 0.0058075 2.2655e-07)
(9.9938 0.013297 2.1895e-07)
(10.0008 0.015067 2.1106e-07)
(10.0023 0.027247 2.0949e-07)
(10.0065 0.047531 9.9459e-07)
(10.0168 0.080425 4.0481e-06)
(10.0392 0.13214 8.6717e-06)
(10.0879 0.21209 1.5383e-05)
(10.1847 0.32795 2.1964e-05)
(10.3731 0.47138 2.4141e-05)
(10.6785 0.592 2.2719e-05)
(11.057 0.53473 2.1091e-05)
(11.361 0.35936 1.8288e-05)
(11.477 0.13459 1.6283e-05)
(11.4176 -0.029669 1.5039e-05)
(11.3079 -0.071476 1.4302e-05)
(11.2283 -0.064855 1.3702e-05)
(11.1921 -0.057068 1.3331e-05)
(11.1714 -0.053103 1.3002e-05)
(11.1575 -0.048331 1.2814e-05)
(11.1468 -0.043038 1.5228e-05)
(11.1412 -0.037872 1.5449e-05)
(11.1399 -0.033505 1.7945e-05)
(11.1384 -0.031333 1.8977e-05)
(11.1351 -0.030855 1.8736e-05)
(11.1332 -0.029249 1.8707e-05)
(11.1338 -0.027261 2.4015e-05)
(11.1341 -0.026244 2.4659e-05)
(10.7464 0.029865 2.4671e-06)
(9.5499 -0.045591 6.7909e-07)
(6.0394 0.031671 1.1078e-06)
(6.4702 -0.025723 2.4237e-06)
(9.2158 0.031015 6.049e-06)
(10.763 -0.0079675 1.4629e-05)
(11.1757 0.015982 5.8636e-05)
(11.1776 0.016716 5.8358e-05)
(11.179 0.018723 5.4569e-05)
(11.1819 0.022034 5.4811e-05)
(11.1862 0.025001 5.4987e-05)
(11.1925 0.030642 5.5209e-05)
(11.1999 0.037856 5.5219e-05)
(11.2114 0.047452 5.5093e-05)
(11.2295 0.058366 5.5793e-05)
(11.2548 0.07136 5.6603e-05)
(11.2951 0.08631 5.7668e-05)
(11.3629 0.099413 5.9343e-05)
(11.4594 0.094193 6.1724e-05)
(11.9235 1.4996 4.2599e-07)
(11.3737 -0.18511 0.00019512)
(11.4609 -0.086446 0.0002132)
(11.4731 -0.01113 0.00023011)
(11.4343 0.032988 0.00024678)
(11.3811 0.04846 0.00026068)
(11.3353 0.046111 0.00027488)
(11.3023 0.037956 0.00029052)
(11.279 0.029409 0.00030727)
(11.2615 0.021666 0.00032483)
(11.2486 0.014698 0.00034366)
(11.2392 0.0091065 0.00036229)
(11.2324 0.005024 0.00038073)
(11.2272 0.0020391 0.000399)
(11.2234 -0.00070531 0.00041709)
(11.2207 -0.0024004 0.00043499)
(11.2185 -0.0036627 0.00045287)
(10.0032 -0.018074 2.0471e-07)
(9.9996 -0.01971 2.1541e-07)
(9.9964 -0.017234 2.2537e-07)
(9.9943 -0.011544 2.3185e-07)
(9.9938 -0.0043453 2.3324e-07)
(9.9951 0.0022604 2.2879e-07)
(9.9975 0.00662 2.2103e-07)
(10.0002 0.007882 2.1275e-07)
(10.0025 0.0061631 4.3276e-05)
(10.0065 0.011624 6.3721e-05)
(10.014 0.020555 8.4444e-05)
(10.0275 0.035003 0.00010512)
(10.051 0.057359 0.00012588)
(10.0918 0.090855 0.00014725)
(10.1607 0.13958 0.00016952)
(10.2749 0.2039 0.00019311)
(10.4534 0.27336 0.00021819)
(10.7061 0.33221 0.00022949)
(10.9854 0.30257 0.00025236)
(11.2274 0.21468 0.00025942)
(11.3616 0.097708 0.00026447)
(11.3859 0.0083127 0.00027232)
(11.3503 -0.026784 0.00028229)
(11.308 -0.027786 0.00029464)
(11.2807 -0.021386 0.00030715)
(11.265 -0.01613 0.00032143)
(11.2542 -0.010572 0.00034006)
(11.2452 -0.0047477 0.00035864)
(11.2386 0.00093014 0.00037713)
(11.2343 0.0054328 0.00039542)
(11.2316 0.0082471 0.00041362)
(11.2285 0.0098232 0.00042826)
(11.2263 0.01201 0.0004461)
(11.2247 0.01386 0.00046373)
(11.2238 0.015187 0.00048136)
(11.2231 0.015832 0.0005213)
(11.1349 -0.026021 4.8843e-05)
(10.7466 0.029799 2.4189e-05)
(9.5519 -0.041768 2.2398e-05)
(6.0438 0.032073 2.2713e-05)
(6.4744 -0.026455 2.4045e-05)
(9.229 0.029325 2.7932e-05)
(10.7641 -0.0094092 3.6404e-05)
(11.1745 0.0147 8.2793e-05)
(11.2167 -0.0048921 0.00049232)
(9.4008 0.11329 2.3045e-07)
(9.4211 -0.14402 2.1787e-07)
(9.4839 -0.34521 2.1424e-07)
(9.5741 -0.55917 2.5775e-07)
(9.7199 -0.79816 2.8537e-07)
(10.0141 -0.87208 3.5588e-07)
(10.2928 -0.8496 2.5579e-06)
(10.4855 -0.57481 2.9614e-05)
(10.5279 -0.7671 1.6236e-05)
(10.6761 -0.64311 2.9653e-05)
(10.742 -0.41505 8.599e-05)
(10.7743 -0.25135 0.00025202)
(10.2302 -0.17383 0.00016756)
(10.1458 -0.12147 0.00014622)
(10.0905 -0.08295 0.00012548)
(10.054 -0.05459 0.00010565)
(10.0303 -0.035043 8.5324e-05)
(10.0151 -0.021781 6.4594e-05)
(10.006 -0.012644 4.3478e-05)
(11.0364 -0.24912 0.00022978)
(6.8166 1.8149 2.586e-06)
(2.6979 1.2043 1.1341e-06)
(5.1559 1.9539 1.8711e-06)
(8.7718 1.1946 3.0121e-06)
(11.2436 0.53947 5.1514e-06)
(10.9625 -0.47145 6.7763e-05)
(11.248 -0.29656 0.00015834)
(10.6435 2.9541 3.8407e-07)
(11.4624 -0.40326 6.9785e-05)
(8.2339 1.2478 2.2716e-06)
(10.985 0.60512 3.7184e-06)
(11.7262 -0.57828 1.9921e-05)
(11.3974 -0.63359 3.2167e-05)
(11.1726 -0.53085 5.0069e-05)
(10.8628 -0.71747 2.453e-05)
(10.6998 -0.94514 1.1126e-05)
(10.3945 -1.1408 1.6415e-06)
(10.0009 -1.2127 3.2076e-07)
(9.5767 -1.1107 2.6704e-07)
(9.3095 -0.80838 2.4295e-07)
(9.1585 -0.46877 2.1478e-07)
(9.081 -0.14032 2.2182e-07)
(9.1196 0.2496 2.6776e-07)
(9.1656 0.68504 4.0087e-07)
(8.865 3.3122 3.4497e-07)
(8.3603 2.2683 3.3481e-07)
(8.9833 1.1844 3.7757e-07)
(6.7751 0.7373 1.1571e-06)
(10.3157 0.75885 1.5263e-06)
(11.0807 -0.82622 1.8209e-05)
(11.6832 0.35539 2.4331e-06)
(12.1013 0.85737 9.5311e-07)
(11.3648 -0.93136 1.2671e-05)
(11.6932 -0.99991 8.1906e-06)
(10.9468 -1.1444 7.5468e-06)
(11.3089 -1.3749 4.6802e-06)
(11.7016 -1.5796 2.9146e-06)
(10.6322 -1.4909 1.085e-06)
(11.0724 -1.9352 7.013e-07)
(8.7779 0.45581 2.7697e-07)
(10.0782 -1.7007 2.9327e-07)
(10.3823 -2.3629 2.6885e-07)
(8.5812 -0.073437 2.2948e-07)
(8.6186 -0.61658 2.1755e-07)
(8.2316 0.90349 2.7444e-07)
(9.3885 -1.6279 2.5306e-07)
(8.8788 -1.2141 2.3342e-07)
(9.2436 -2.4221 2.4116e-07)
(7.7444 0.0935 2.2817e-07)
(7.848 -0.87557 2.1837e-07)
(8.2703 -1.8531 2.2716e-07)
(8.7624 -3.9647 2.3019e-07)
(6.1526 0.46892 2.269e-07)
(6.1909 -1.5073 2.1863e-07)
(6.7866 -3.1567 2.2236e-07)
(10.0037 0.002365 4.3934e-05)
(10.0097 0.0043453 6.4971e-05)
(10.0206 0.0075998 8.5875e-05)
(10.0392 0.012902 0.00010648)
(10.07 0.020942 0.00012671)
(10.1201 0.032567 0.00014752)
(10.1997 0.048703 0.00016973)
(10.3199 0.068626 0.00019345)
(10.4898 0.088411 0.00021914)
(10.711 0.10439 0.00024525)
(10.9514 0.098798 0.00027162)
(11.1624 0.075508 0.00029673)
(11.2974 0.042299 0.0003189)
(11.3474 0.014533 0.00033893)
(11.3398 0.00070448 0.00035782)
(11.3125 -0.0025797 0.0003754)
(11.2893 -0.0025797 0.00039301)
(11.2742 -0.0029404 0.00041107)
(11.2633 -0.0036373 0.00042902)
(11.2543 -0.0042386 0.00044678)
(11.2473 -0.004899 0.00046445)
(11.2425 -0.005835 0.00048198)
(11.2394 -0.0070802 0.00049941)
(11.2371 -0.0084544 0.00051668)
(11.2351 -0.0096934 0.00053373)
(11.2337 -0.010797 0.00055072)
(11.2328 -0.01194 0.00056753)
(11.2323 -0.012979 0.00060591)
(11.2319 -0.013852 0.00060116)
(11.2207 0.016314 0.00051698)
(11.1357 -0.026121 2.6698e-05)
(10.7437 0.029383 2.2271e-06)
(9.5521 -0.039222 4.5013e-07)
(6.0491 0.032646 7.5781e-07)
(6.4795 -0.026168 2.0766e-06)
(9.2326 0.027999 5.9821e-06)
(10.7629 -0.010702 1.4475e-05)
(11.174 0.014411 6.0494e-05)
(11.214 -0.0053449 0.00048844)
(11.2029 0.0065166 0.00059992)
(11.2048 0.0061706 0.00060453)
(11.2066 0.0058788 0.00056596)
(11.2088 0.005641 0.00054907)
(11.2119 0.0055263 0.0005321)
(11.216 0.005616 0.00051504)
(11.2215 0.0058592 0.00049783)
(11.2291 0.0063964 0.00048047)
(11.2395 0.0073923 0.00046295)
(11.2533 0.0088523 0.00044529)
(11.2714 0.010744 0.00042751)
(11.2951 0.012965 0.00041043)
(11.3261 0.014455 0.00039475)
(11.3634 0.013226 0.00037824)
(11.3983 0.0050859 0.00036162)
(11.4112 -0.013505 0.00034452)
(11.3751 -0.040453 0.00032573)
(11.2683 -0.06876 0.00030122)
(11.0829 -0.11491 0.00027593)
(10.8237 -0.061658 0.00024671)
(10.5971 -0.062803 0.00020459)
(10.4207 -0.062431 0.00018025)
(10.2834 -0.05344 0.0001624)
(10.1834 -0.040753 0.00014421)
(10.1145 -0.029093 0.00012564)
(10.0683 -0.01975 0.00010638)
(10.0382 -0.012842 8.6329e-05)
(10.0191 -0.0080062 6.5686e-05)
(10.0075 -0.0045965 4.4539e-05)
(10.0017 -0.002102 6.4042e-07)
(10.0013 -0.0058258 2.3505e-07)
(10.0007 -0.0083572 -2.1727e-05)
(9.9999 -0.0091232 -2.1732e-05)
(9.9992 -0.0080466 -2.1726e-05)
(9.9987 -0.005512 -2.1722e-05)
(9.9986 -0.0022834 -2.1721e-05)
(9.9989 0.00072872 -2.166e-05)
(9.9994 0.0027593 -2.1606e-05)
(10 0.0033991 -2.1592e-05)
(10.0005 0.0026925 4.0048e-07)
(10.0008 0.0010159 7.0705e-07)
(6.3436 -4.7459 2.1972e-07)
(9.2169 -6.6215 2.23e-07)
(12.3882 -5.983 2.3043e-07)
(13.5925 -4.9194 2.2991e-07)
(13.3228 -2.5437 3.0925e-07)
(10.8032 -1.9949 3.0834e-07)
(3.2488 -2.6598 5.4376e-07)
(-2.4992 -1.5887 9.8688e-07)
(-2.7115 -0.50471 8.7967e-07)
(-5.0421 1.4197 8.6577e-07)
(9.697 2.8667 3.1147e-07)
(12.7088 3.1576 2.6162e-07)
(12.8063 5.3092 2.5789e-07)
(11.2153 6.3148 2.5854e-07)
(5.107 1.0516 2.258e-07)
(5.1005 -2.0093 2.1856e-07)
(5.9209 0.27319 2.4295e-06)
(12.3263 1.0498 4.388e-07)
)
;

boundaryField
{
    bottom
    {
        type             symmetry;
    }
    inlet
    {
        type             fixedValue;
        value            uniform (10 0 0);
    }
    object
    {
        type             noSlip;
    }
    outlet
    {
        type             zeroGradient;
    }
    side1
    {
        type             empty;
    }
    side2
    {
        type             empty;
    }
    top
    {
        type             symmetry;
    }
}

// ************************************************************************* //
