/*--------------------------------*- C++ -*----------------------------------*\\
| =========                 |                                                 |
| \\      /  F ield         | OpenFOAM: The Open Source CFD Toolbox           |
|  \\    /   O peration     | Version:  v1706                                 |
|   \\  /    A nd           | Web:      www.OpenFOAM.com                      |
|    \\/     M anipulation  |                                                 |
\\*---------------------------------------------------------------------------*/
FoamFile
{
    version     2.0;
    format      ascii;
    class       surfaceScalarField;
    location    "0.8";
    object      mdot_f;
}
// * * * * * * * * * * * * * * * * * * * * * * * * * * * * * * * * * * * * * //

dimensions      [1 0 -1 0 0 0 0]


internalField   nonuniform List<scalar>
560
(
-9.0523e-05
-0.13986
-8.0977e-05
-0.14232
-0.00026003
-0.14538
-0.00046618
-0.14751
-0.00059244
-0.14853
-0.00063623
-0.14893
-0.0005482
-0.1491
-0.00040178
-0.14911
-0.00021502
-0.14907
-0.14902
-0.00017954
-0.13968
-0.00029866
-0.14221
-0.00045915
-0.14523
-0.00060425
-0.14736
-0.00066544
-0.14847
-0.00066123
-0.14894
-0.00056822
-0.1492
-0.00041252
-0.14927
-0.00021718
-0.14927
-0.14923
-0.00030462
-0.13938
-0.00051514
-0.14201
-0.00069992
-0.14505
-0.00082594
-0.14725
-0.00083708
-0.14847
-0.00078154
-0.149
-0.00065451
-0.14933
-0.00046785
-0.14947
-0.00024399
-0.14949
-0.14948
-0.00049265
-0.13889
-0.00080311
-0.14171
-0.0010195
-0.14485
-0.0011379
-0.14714
-0.0011008
-0.14852
-0.0009834
-0.14913
-0.00080166
-0.14952
-0.000564
-0.14971
-0.00029188
-0.14978
-0.14978
-0.00078916
-0.13811
-0.001219
-0.1413
-0.0014459
-0.14464
-0.0015455
-0.14706
-0.0014528
-0.14862
-0.0012594
-0.14934
-0.001005
-0.14979
-0.00069823
-0.15003
-0.00035889
-0.15012
-0.15014
-0.0012231
-0.1369
-0.0017834
-0.14077
-0.0019835
-0.14446
-0.0020499
-0.14701
-0.0018979
-0.14879
-0.0016151
-0.14963
-0.0012677
-0.15015
-0.00087102
-0.15044
-0.00044484
-0.15056
-0.1506
-0.0017402
-0.13517
-0.002485
-0.14005
-0.0026683
-0.1443
-0.0027012
-0.147
-0.0024782
-0.14903
-0.0020765
-0.15005
-0.001601
-0.15064
-0.0010851
-0.15097
-0.00054947
-0.15111
-0.15115
-0.0022676
-0.13292
-0.0035269
-0.13882
-0.0037714
-0.14407
-0.0036877
-0.1471
-0.0032867
-0.14945
-0.0026753
-0.15068
-0.0020072
-0.15132
-0.0013333
-0.15166
-0.0006668
-0.15179
-0.15183
-0.0035934
-0.12934
-0.0059442
-0.13649
-0.0059317
-0.14411
-0.0052602
-0.14779
-0.0043669
-0.15037
-0.0033812
-0.15168
-0.0024432
-0.15228
-0.0015817
-0.15253
-0.00077892
-0.15261
-0.15261
-0.009574
-0.11979
-0.011168
-0.13493
-0.0093855
-0.14591
-0.0072566
-0.14994
-0.0055001
-0.15214
-0.0040264
-0.15317
-0.0027986
-0.15352
-0.001765
-0.15358
-0.00085592
-0.15353
-0.15347
0.020735
-0.14054
0.024744
-0.13895
0.025535
-0.14672
0.024223
-0.14864
0.021388
-0.14932
0.01775
-0.14955
0.01363
-0.14941
0.0092137
-0.14918
0.0046361
-0.14897
-0.14884
0.012363
-0.15291
0.017345
-0.14395
0.018792
-0.14818
0.018203
-0.14806
0.016293
-0.14742
0.013621
-0.14689
0.010503
-0.1463
0.0071202
-0.1458
0.0035896
-0.14545
-0.14526
0.0072312
-0.16015
0.011614
-0.14834
0.012941
-0.14951
0.012736
-0.14787
0.011525
-0.14622
0.0096969
-0.14507
0.0075048
-0.14412
0.0050994
-0.1434
0.0025744
-0.14293
-0.14269
0.0036977
-0.16386
0.0069098
-0.15156
0.0077746
-0.15038
0.0077269
-0.14782
0.0070526
-0.14555
0.0059615
-0.14398
0.0046252
-0.14279
0.0031468
-0.14193
0.0015894
-0.14138
-0.1411
0.00089808
-0.16476
0.0027257
-0.1534
0.003049
-0.15071
0.0030347
-0.14781
0.0027937
-0.14531
0.0023654
-0.14356
0.001833
-0.14226
0.0012443
-0.14135
0.00062672
-0.14076
-0.14047
-0.0016011
-0.16316
-0.0012727
-0.15373
-0.0014577
-0.15053
-0.001484
-0.14779
-0.0013527
-0.14544
-0.0011632
-0.14375
-0.00092121
-0.14251
-0.00063854
-0.14163
-0.00032771
-0.14108
-0.1408
-0.0041389
-0.15902
-0.0053265
-0.15254
-0.0059802
-0.14988
-0.0060156
-0.14775
-0.0055298
-0.14593
-0.0047266
-0.14455
-0.0037055
-0.14353
-0.002542
-0.1428
-0.0012922
-0.14233
-0.14209
-0.0068836
-0.15214
-0.0096819
-0.14974
-0.010873
-0.14868
-0.010872
-0.14775
-0.0099603
-0.14684
-0.0084675
-0.14604
-0.006605
-0.14539
-0.0045128
-0.14489
-0.0022874
-0.14455
-0.14438
-0.010533
-0.1416
-0.015337
-0.14493
-0.016919
-0.1471
-0.01653
-0.14814
-0.014898
-0.14847
-0.012518
-0.14842
-0.0096862
-0.14822
-0.006583
-0.14799
-0.0033257
-0.14781
-0.1477
-0.019335
-0.12227
-0.024643
-0.13962
-0.025041
-0.1467
-0.023311
-0.14987
-0.020448
-0.15133
-0.01691
-0.15196
-0.012958
-0.15217
-0.0087545
-0.15219
-0.0044077
-0.15215
-0.15211
0.011318
-0.13358
0.011835
-0.14013
0.010198
-0.14506
0.0082099
-0.14788
0.0063494
-0.14947
0.0047314
-0.15034
0.003342
-0.15077
0.0021292
-0.15098
0.0010343
-0.15105
-0.15107
0.0055808
-0.13916
0.0074176
-0.14196
0.0072213
-0.14486
0.0063024
-0.14695
0.0051632
-0.14833
0.0040086
-0.14918
0.0029142
-0.14968
0.0018932
-0.14995
0.00093087
-0.15009
-0.15014
0.0030725
-0.14223
0.0046652
-0.14355
0.005017
-0.14521
0.0046919
-0.14662
0.004042
-0.14767
0.0032561
-0.14839
0.0024307
-0.14885
0.0016079
-0.14912
0.00079928
-0.14928
-0.14934
0.0018266
-0.14405
0.003003
-0.14472
0.0034692
-0.14567
0.0034293
-0.14658
0.0030814
-0.14732
0.0025626
-0.14786
0.0019581
-0.14824
0.0013162
-0.14848
0.0006607
-0.14862
-0.14868
0.0011448
-0.1452
0.0019765
-0.14555
0.0024
-0.14609
0.0024752
-0.14665
0.002301
-0.14714
0.0019651
-0.14752
0.0015316
-0.1478
0.0010438
-0.14799
0.00052842
-0.1481
-0.14815
0.00074101
-0.14593
0.0013193
-0.14612
0.0016578
-0.14642
0.0017645
-0.14675
0.0016845
-0.14706
0.0014696
-0.1473
0.0011643
-0.14749
0.00080266
-0.14762
0.0004093
-0.1477
-0.14774
0.00048513
-0.14642
0.00088101
-0.14651
0.0011331
-0.14667
0.0012339
-0.14685
0.0012019
-0.14702
0.0010661
-0.14717
0.00085561
-0.14728
0.00059538
-0.14736
0.00030547
-0.1474
-0.14743
0.00031254
-0.14673
0.00057508
-0.14677
0.00075128
-0.14684
0.00083124
-0.14692
0.00082154
-0.14701
0.0007377
-0.14708
0.00059782
-0.14713
0.00041896
-0.14717
0.00021605
-0.1472
-0.14721
0.00018824
-0.14691
0.00034931
-0.14692
0.00046074
-0.14695
0.00051495
-0.14697
0.00051379
-0.147
0.0004651
-0.14702
0.00037935
-0.14704
0.00026711
-0.14706
0.00013824
-0.14707
-0.14707
9.0731e-05
0.00016845
0.00022306
0.0002503
0.00025065
0.00022759
0.00018605
0.00013111
6.7473e-05
)
;

boundaryField
{
    bump
    {
        type             calculated;
        value            uniform 0;
    }
    outlet
    {
        type             calculated;
        value            nonuniform List<scalar>
10
(
0.14875
0.14882
0.1489
0.14895
0.14889
0.14856
0.14763
0.14561
0.14252
0.14027
)
;
    }
    inlet
    {
        type             calculated;
        value            nonuniform List<scalar>
10
(
-0.147
-0.147
-0.147
-0.147
-0.147
-0.147
-0.147
-0.147
-0.147
-0.147
)
;
    }
    side1
    {
        type             calculated;
        value            uniform 0;
    }
    side2
    {
        type             calculated;
        value            uniform 0;
    }
    symmetry
    {
        type             calculated;
        value            uniform 0;
    }
    top
    {
        type             calculated;
        value            uniform 0;
    }
}

// ************************************************************************* //
