/*--------------------------------*- C++ -*----------------------------------*\\
| =========                 |                                                 |
| \\      /  F ield         | OpenFOAM: The Open Source CFD Toolbox           |
|  \\    /   O peration     | Version:  v1706                                 |
|   \\  /    A nd           | Web:      www.OpenFOAM.com                      |
|    \\/     M anipulation  |                                                 |
\\*---------------------------------------------------------------------------*/
FoamFile
{
    version     2.0;
    format      ascii;
    class       volScalarField;
    location    "0.8";
    object      p;
}
// * * * * * * * * * * * * * * * * * * * * * * * * * * * * * * * * * * * * * //

dimensions      [1 -1 -2 0 0 0 0]


internalField   nonuniform List<scalar>
300
(
18.1851
10.8305
9.9648
5.6636
3.4416
1.9708
-1.6364
-3.6823
-4.7441
-5.3002
41.1994
26.9219
21.1976
11.8547
5.5429
1.8181
-4.658
-9.1363
-11.7022
-13.0236
67.6112
45.2331
32.1192
15.6867
3.7936
-2.1389
-10.5246
-16.907
-20.6687
-22.5407
88.5903
58.4912
39.1155
16.1124
-1.9301
-10.0402
-19.6216
-27.3848
-32.0821
-34.3902
95.6554
60.5482
40.013
13.9175
-10.1765
-20.9775
-31.6182
-40.5655
-46.0922
-48.7725
93.5538
55.1011
38.3007
12.7683
-18.2267
-33.6691
-46.1876
-56.5487
-62.9484
-65.9856
120.3538
65.8148
43.8313
16.0382
-25.217
-48.5741
-64.193
-76.0226
-83.1492
-86.4553
247.0686
126.8031
60.0135
17.0756
-37.3907
-69.9632
-88.3236
-100.5036
-107.4521
-110.5671
477.1473
220.0583
56.482
-9.4298
-69.2466
-104.7256
-121.6676
-131.241
-136.1856
-138.2729
502.6508
194.6698
-32.9908
-93.4389
-132.7649
-156.4508
-164.6335
-167.54
-168.334
-168.5147
-234.5115
-108.9191
-229.2873
-228.4494
-220.6477
-219.2181
-212.5606
-205.9437
-201.2199
-198.9372
-725.3323
-378.6451
-397.9863
-346.7657
-300.9259
-276.458
-256.0824
-240.9024
-231.0599
-226.3148
-1049.2987
-602.2781
-533.3794
-445.1075
-369.0598
-324.2181
-291.4908
-268.7734
-254.4872
-247.59
-1229.6573
-754.9124
-615.7162
-507.9445
-413.7046
-354.8628
-313.5003
-285.53
-268.1939
-259.8348
-1285.0447
-835.2769
-642.4751
-528.0179
-428.0879
-363.1305
-318.2264
-288.2457
-269.8404
-260.9952
-1217.042
-840.8961
-615.1404
-502.5569
-408.9006
-346.5755
-304.0537
-275.8822
-258.7007
-250.4647
-986.0434
-745.192
-526.1578
-429.4315
-355.7449
-306.0448
-272.2435
-249.7703
-236.0198
-229.3775
-516.1305
-496.7619
-361.1822
-310.0868
-273.1303
-246.3679
-226.978
-213.3814
-204.7402
-200.3938
184.7419
-98.6921
-137.5478
-164.7651
-175.6175
-177.1992
-174.8872
-171.5737
-168.7621
-167.0122
735.677
247.5935
51.9263
-40.0544
-87.2606
-111.5178
-123.6672
-129.4619
-131.9834
-132.6951
437.7465
250.9012
110.0177
24.7652
-27.828
-60.2016
-79.7715
-91.2559
-97.5394
-100.1917
291.0271
209.9982
122.0886
55.1922
7.9562
-24.3845
-45.8722
-59.5768
-67.6223
-71.2659
206.9127
167.1122
114.3443
66.5422
28.4808
-0.02147
-20.3884
-34.1668
-42.6311
-46.6075
155.7742
134.2208
101.8473
68.6736
39.562
16.0558
-1.7802
-14.4282
-22.4724
-26.3501
123.2916
110.634
90.0301
66.9989
45.1974
26.4701
11.5323
0.51714
-6.688
-10.2302
102.0685
94.1017
80.4308
64.175
47.8667
33.1415
20.9025
11.5781
5.3344
2.2162
88.0435
82.7001
73.1984
61.3888
49.0055
37.3711
27.3725
19.5485
14.2061
11.5029
78.9502
75.1112
68.1162
59.1418
49.4135
39.9852
31.6645
25.0133
20.4018
18.0452
73.6311
70.6039
65.0043
57.6642
49.5217
41.4548
34.198
28.3083
24.1812
22.0591
71.4854
68.7668
63.7196
57.0353
49.5373
42.0309
35.2168
29.6474
25.7259
23.7085
)
;

boundaryField
{
    bump
    {
        type             zeroGradient;
    }
    outlet
    {
        type             fixedValue;
        value            uniform 0;
    }
    inlet
    {
        type             zeroGradient;
    }
    side1
    {
        type             empty;
    }
    side2
    {
        type             empty;
    }
    symmetry
    {
        type             symmetry;
    }
    top
    {
        type             symmetry;
    }
}

// ************************************************************************* //
