/*--------------------------------*- C++ -*----------------------------------*\\
| =========                 |                                                 |
| \\      /  F ield         | OpenFOAM: The Open Source CFD Toolbox           |
|  \\    /   O peration     | Version:  v1706                                 |
|   \\  /    A nd           | Web:      www.OpenFOAM.com                      |
|    \\/     M anipulation  |                                                 |
\\*---------------------------------------------------------------------------*/
FoamFile
{
    version     2.0;
    format      ascii;
    class       volVectorField;
    location    "0.8";
    object      U;
}
// * * * * * * * * * * * * * * * * * * * * * * * * * * * * * * * * * * * * * //

dimensions      [0 1 -1 0 0 0 0]


internalField   nonuniform List<vector>
300
(
(57.2525 -0.16898 0.014451)
(58.1716 0.08658 0.010034)
(59.4338 0.054275 0.0056891)
(60.2582 -0.18123 0.0034774)
(60.6365 -0.15171 0.0021322)
(60.7731 -0.29498 0.0012857)
(60.7942 -0.23407 0.00076114)
(60.7757 -0.18606 0.00057594)
(60.7425 -0.12716 0.0021705)
(60.7126 -0.046221 0.0022394)
(57.0089 -0.22558 0.01441)
(58.0267 0.012464 0.009986)
(59.2678 -0.0071308 0.0057195)
(60.1256 -0.25723 0.0035231)
(60.5486 -0.17955 0.0021867)
(60.7227 -0.31649 0.0013451)
(60.8147 -0.25346 0.00082396)
(60.8359 -0.19439 0.0006403)
(60.8261 -0.13099 0.0021829)
(60.8097 -0.047431 0.0022581)
(56.8219 -0.31243 0.014189)
(57.9002 -0.096743 0.0097715)
(59.1717 -0.092973 0.0055924)
(60.0693 -0.37283 0.0034166)
(60.5411 -0.24678 0.0020917)
(60.7411 -0.37322 0.0012566)
(60.8636 -0.30728 0.00073989)
(60.9098 -0.22705 0.00055814)
(60.9155 -0.14921 0.0020469)
(60.9073 -0.053768 0.0021278)
(56.6098 -0.43624 0.014023)
(57.7654 -0.26167 0.0096209)
(59.0848 -0.22443 0.0055354)
(60.0321 -0.5415 0.003383)
(60.5631 -0.35771 0.0020707)
(60.7894 -0.4597 0.0012425)
(60.9353 -0.38906 0.00073015)
(61.0034 -0.28113 0.0005495)
(61.0232 -0.17988 0.0019829)
(61.022 -0.064213 0.0020686)
(56.4207 -0.60359 0.013851)
(57.6644 -0.49099 0.0094716)
(59.0238 -0.40359 0.0054817)
(60.0127 -0.76897 0.0033531)
(60.6115 -0.51763 0.0020533)
(60.869 -0.57362 0.0012314)
(61.0356 -0.49402 0.00072265)
(61.1238 -0.35407 0.00054153)
(61.1568 -0.22159 0.0019181)
(61.1621 -0.078239 0.0020077)
(56.2483 -0.81715 0.013685)
(57.5953 -0.77668 0.0093343)
(58.9783 -0.60859 0.0054378)
(59.9907 -1.049 0.0033311)
(60.6704 -0.73357 0.0020418)
(60.9751 -0.71866 0.0012248)
(61.167 -0.62182 0.00071827)
(61.2763 -0.44519 0.00053438)
(61.3226 -0.27377 0.0018529)
(61.3341 -0.095603 0.0019452)
(55.8456 -1.089 0.013537)
(57.4057 -1.1241 0.009219)
(58.8787 -0.82163 0.0054094)
(59.9334 -1.3814 0.0033203)
(60.7285 -1.026 0.0020383)
(61.112 -0.9106 0.001224)
(61.3396 -0.77778 0.00071761)
(61.4708 -0.55576 0.00052808)
(61.5293 -0.33652 0.0017877)
(61.5459 -0.11618 0.0018816)
(54.5263 -1.5146 0.013418)
(56.7497 -1.6958 0.0091345)
(58.6525 -1.1347 0.0054017)
(59.8649 -1.8167 0.0033237)
(60.8244 -1.4384 0.0020446)
(61.3147 -1.1744 0.0012297)
(61.5799 -0.96713 0.00072103)
(61.7246 -0.68377 0.00052253)
(61.7872 -0.40728 0.0017225)
(61.8046 -0.13888 0.0018168)
(51.7169 -2.4401 0.013333)
(55.5044 -3.0945 0.009094)
(58.4754 -1.8885 0.0054228)
(59.9878 -2.4649 0.0033452)
(61.0883 -2.0022 0.0020624)
(61.6541 -1.5135 0.0012425)
(61.9251 -1.1775 0.0007286)
(62.0551 -0.81457 0.00051752)
(62.1034 -0.47627 0.0016574)
(62.1128 -0.16037 0.0017511)
(49.5153 -4.4216 0.013316)
(54.7879 -6.2593 0.0091412)
(58.9926 -3.4865 0.0054904)
(60.6596 -3.332 0.003391)
(61.683 -2.6315 0.0020933)
(62.1925 -1.8607 0.0012629)
(62.3948 -1.3609 0.00074047)
(62.4637 -0.91595 0.00051324)
(62.4718 -0.52593 0.0015925)
(62.4619 -0.17521 0.0016846)
(55.0766 -6.8817 0.013359)
(56.8452 -10.5202 0.0092193)
(60.8121 -5.5238 0.005546)
(62.0546 -4.0581 0.0034163)
(62.6519 -3.07 0.0021065)
(62.9204 -2.0782 0.0012715)
(62.9645 -1.4445 0.00074557)
(62.9261 -0.94803 0.0005042)
(62.8699 -0.53688 0.0015247)
(62.8303 -0.17772 0.0016179)
(63.836 -6.0305 0.012889)
(61.0972 -11.0751 0.0082545)
(63.5939 -5.5246 0.0047174)
(63.8777 -3.7869 0.0029033)
(63.8249 -2.8509 0.001792)
(63.7261 -1.8757 0.0010867)
(63.5527 -1.2815 0.00064763)
(63.3836 -0.83019 0.00046426)
(63.2554 -0.4672 0.0015052)
(63.1852 -0.15213 0.0015461)
(69.5622 -3.7712 0.011794)
(64.7227 -9.2628 0.0071348)
(65.853 -4.6948 0.0039185)
(65.3773 -2.9582 0.0024247)
(64.8143 -2.2757 0.001494)
(64.4089 -1.4604 0.00090915)
(64.0507 -0.98248 0.00055124)
(63.7701 -0.62748 0.00042134)
(63.5787 -0.35075 0.0014616)
(63.4801 -0.11174 0.0014626)
(73.0917 -0.93345 0.010356)
(67.5346 -5.9937 0.0058644)
(67.4762 -3.2772 0.0031756)
(66.4753 -1.716 0.0019987)
(65.5462 -1.4049 0.0012454)
(64.9043 -0.86192 0.00077052)
(64.4033 -0.56485 0.00047717)
(64.0375 -0.35164 0.00038797)
(63.7983 -0.19406 0.0014009)
(63.6778 -0.059237 0.0013733)
(74.7748 2.0424 0.0095403)
(69.2905 -1.9396 0.0050153)
(68.3296 -1.4408 0.0027392)
(67.0495 -0.246 0.0017368)
(65.9251 -0.33607 0.001089)
(65.1421 -0.13785 0.00068447)
(64.5586 -0.065539 0.00043098)
(64.1454 -0.02605 0.00036689)
(63.8803 -0.01031 0.0013264)
(63.7484 0.00098164 0.0012814)
(74.7677 4.8483 0.0094104)
(69.9001 2.3591 0.0048207)
(68.3871 0.70125 0.0026505)
(67.0391 1.2807 0.0016748)
(65.8949 0.81543 0.0010459)
(65.0812 0.63876 0.00065892)
(64.4871 0.46555 0.00041573)
(64.0717 0.31727 0.00035933)
(63.8075 0.18243 0.0012416)
(63.6766 0.063461 0.0011893)
(72.981 7.2257 0.0087712)
(69.176 6.3659 0.0045944)
(67.6064 3.0086 0.002456)
(66.4078 2.7295 0.0015289)
(65.4271 1.9151 0.00095121)
(64.71 1.3813 0.00059586)
(64.1861 0.9684 0.00037403)
(63.8181 0.64024 0.0003294)
(63.5832 0.36313 0.0011382)
(63.466 0.1221 0.0010942)
(68.8461 8.7863 0.0063912)
(66.8101 9.5134 0.0035289)
(65.8786 5.1424 0.0017621)
(65.1543 3.9395 0.0010735)
(64.5426 2.7999 0.00068041)
(64.0588 1.9835 0.00043111)
(63.6852 1.3752 0.00027164)
(63.4115 0.90209 0.00025439)
(63.2316 0.51014 0.0010189)
(63.1397 0.17007 0.00099555)
(61.8023 8.9175 0.0030328)
(62.6967 10.841 0.0019174)
(63.2974 6.4823 0.00087341)
(63.4467 4.6229 0.00053703)
(63.3819 3.2975 0.00037155)
(63.2287 2.3415 0.00024976)
(63.0574 1.6283 0.00016054)
(62.9062 1.0708 0.0001663)
(62.7965 0.60747 0.00090145)
(62.7364 0.20213 0.00090001)
(53.8666 6.8558 0.0010149)
(58.3233 9.1498 0.00089385)
(60.7137 6.2667 0.00031062)
(61.7699 4.5196 0.00018164)
(62.22 3.3142 0.00014042)
(62.3785 2.4103 0.00010186)
(62.4007 1.7055 6.7256e-05)
(62.369 1.1349 8.0013e-05)
(62.3284 0.64908 0.00079377)
(62.3001 0.21573 0.00081111)
(52.4923 2.6572 0.00069685)
(57.0245 4.9326 0.00073315)
(59.4446 4.6695 0.00014454)
(60.695 3.8052 3.77e-05)
(61.3438 2.9763 2.2215e-05)
(61.6649 2.2551 1.5885e-05)
(61.8079 1.639 1.0195e-05)
(61.86 1.1095 6.0858e-06)
(61.8717 0.64108 0.00070166)
(61.8692 0.21176 0.00073282)
(55.8684 1.257 0.0006568)
(57.6567 2.7777 0.00065416)
(59.1541 3.0916 6.9512e-05)
(60.1328 2.8144 5.3108e-06)
(60.739 2.3627 3.5089e-07)
(61.0968 1.8797 3.6153e-08)
(61.2955 1.4141 5.3242e-10)
(61.3981 0.98029 -1.0617e-08)
(61.446 0.57541 0.00063495)
(61.463 0.1913 0.00066011)
(57.5289 0.6741 0.0005849)
(58.3176 1.6472 0.00058357)
(59.2028 2.0401 3.9634e-05)
(59.8989 2.0251 2.1553e-06)
(60.3873 1.8076 1.3439e-07)
(60.7079 1.5027 1.94e-08)
(60.9062 1.167 -6.5313e-09)
(61.0213 0.82715 -1.837e-08)
(61.0826 0.49262 0.00056956)
(61.108 0.16473 0.00058691)
(58.482 0.39396 0.0005124)
(58.8641 1.0229 0.00051171)
(59.3725 1.3607 2.2198e-05)
(59.8331 1.4397 8.7255e-07)
(60.1911 1.3506 6.7159e-08)
(60.4463 1.1656 1.3075e-08)
(60.6164 0.93079 -1.0695e-08)
(60.7225 0.67284 -2.3593e-08)
(60.7827 0.40594 0.00050227)
(60.8092 0.13645 0.00051364)
(59.0645 0.24413 0.00043958)
(59.261 0.65814 0.00043922)
(59.5517 0.91804 1.2132e-05)
(59.8428 1.0172 3.6747e-07)
(60.0879 0.99189 4.6734e-08)
(60.2744 0.88269 1.0111e-08)
(60.4059 0.72158 -1.3363e-08)
(60.4921 0.53047 -2.7357e-08)
(60.5431 0.32364 0.0004333)
(60.5663 0.10929 0.00044033)
(59.436 0.1568 0.00036658)
(59.5396 0.4328 0.00036639)
(59.7037 0.62312 6.3691e-06)
(59.8797 0.71352 1.744e-07)
(60.0371 0.71646 4.0249e-08)
(60.163 0.65323 8.3206e-09)
(60.2557 0.54425 -1.5275e-08)
(60.3187 0.40574 -3.0281e-08)
(60.3571 0.24988 0.00036295)
(60.3749 0.084711 0.00036698)
(59.6785 0.10208 0.00029345)
(59.7322 0.28605 0.00029336)
(59.821 0.42062 3.1337e-06)
(59.9209 0.49291 1.0371e-07)
(60.0141 0.50577 3.776e-08)
(60.0914 0.46976 6.9752e-09)
(60.1502 0.39726 -1.6809e-08)
(60.1912 0.29948 -3.2688e-08)
(60.2167 0.18585 0.00029151)
(60.2288 0.063212 0.00029361)
(59.8368 0.065462 0.00022023)
(59.8624 0.18524 0.00022018)
(59.9059 0.2762 1.3941e-06)
(59.9563 0.32885 7.9495e-08)
(60.0048 0.34267 3.6382e-08)
(60.046 0.32262 5.8286e-09)
(60.0779 0.27588 -1.8123e-08)
(60.1007 0.20972 -3.4707e-08)
(60.115 0.13091 0.00021928)
(60.1219 0.044647 0.00022022)
(59.9351 0.039195 0.00014693)
(59.9448 0.11158 0.00014691)
(59.9618 0.16782 5.3806e-07)
(59.9818 0.20184 7.1971e-08)
(60.0014 0.21246 3.5393e-08)
(60.0183 0.20186 4.8708e-09)
(60.0315 0.17392 -1.92e-08)
(60.0411 0.13296 -3.6304e-08)
(60.0472 0.083331 0.00014649)
(60.0502 0.028467 0.00014682)
(59.9856 0.018503 5.3634e-08)
(59.9876 0.052854 4.3408e-08)
(59.9914 0.079789 -7.3306e-05)
(59.9959 0.096486 -7.3412e-05)
(60.0002 0.1021 -7.3434e-05)
(60.0041 0.097455 -7.3453e-05)
(60.0071 0.084277 -7.3468e-05)
(60.0092 0.064589 -7.3478e-05)
(60.0107 0.040465 -1.0388e-07)
(60.0114 0.013745 -4.1876e-08)
)
;

boundaryField
{
    bump
    {
        type             noSlip;
    }
    outlet
    {
        type             zeroGradient;
    }
    inlet
    {
        type             fixedValue;
        value            uniform (60 0 0);
    }
    side1
    {
        type             empty;
    }
    side2
    {
        type             empty;
    }
    symmetry
    {
        type             symmetry;
    }
    top
    {
        type             symmetry;
    }
}

// ************************************************************************* //
