/*--------------------------------*- C++ -*----------------------------------*\\
| =========                 |                                                 |
| \\      /  F ield         | OpenFOAM: The Open Source CFD Toolbox           |
|  \\    /   O peration     | Version:  v1706                                 |
|   \\  /    A nd           | Web:      www.OpenFOAM.com                      |
|    \\/     M anipulation  |                                                 |
\\*---------------------------------------------------------------------------*/
FoamFile
{
    version     2.0;
    format      ascii;
    class       volScalarField;
    location    "1";
    object      T;
}
// * * * * * * * * * * * * * * * * * * * * * * * * * * * * * * * * * * * * * //

dimensions      [0 0 0 1 0 0 0]


internalField   nonuniform List<scalar>
400
(
399.2106
397.6927
396.2883
395.0547
394.0259
393.2113
392.6015
392.1753
391.9088
391.7817
391.7824
391.9108
392.1777
392.603
393.2107
394.0218
395.0469
396.2776
397.6822
399.2053
397.6925
393.2526
389.1427
385.5292
382.5107
380.1163
378.3198
377.0618
376.2734
375.8967
375.8987
376.2787
377.0683
378.3244
380.1156
382.5018
385.5112
389.1181
393.2286
397.6805
396.2873
389.1405
382.5249
376.7074
371.8457
367.9869
365.0895
363.0589
361.7854
361.1763
361.1792
361.793
363.0686
365.0971
367.9881
371.8369
376.6873
382.4966
389.1126
396.2734
395.0516
385.5209
376.6987
368.9394
362.4524
357.3008
353.4301
350.7155
349.0116
348.196
348.1992
349.0202
350.7266
353.4397
357.3043
362.4461
368.922
376.6732
385.4953
395.0388
394.0182
382.4889
371.8161
362.4271
354.5745
348.3347
343.6434
340.3508
338.2825
337.2915
337.2945
338.2905
340.3612
343.6526
348.3387
354.57
362.4132
371.7952
382.4677
394.0075
393.1947
380.0679
367.9152
357.2215
348.2738
341.16
335.808
332.049
329.686
328.5527
328.5549
329.6918
332.0563
335.8139
341.1614
348.2684
357.2087
367.8973
380.0501
393.1858
392.5684
378.2221
364.9391
353.2478
343.4618
335.6777
329.8179
325.6997
323.1091
321.8654
321.8663
323.1113
325.7017
329.8176
335.6731
343.4518
353.2326
364.921
378.2055
392.5603
392.1129
376.8764
362.768
350.3483
339.9498
331.6756
325.4443
321.0629
318.3051
316.9799
316.9792
318.3027
321.0579
325.4355
331.6622
339.9318
350.3271
362.7464
376.8584
392.1046
391.7956
375.9367
361.2524
348.3257
337.5023
328.8892
322.4016
317.8389
314.966
313.5844
313.582
314.9585
317.8259
322.3829
328.865
337.474
348.2959
361.2247
375.9154
391.7863
391.5829
375.3062
360.2385
346.9783
335.8796
327.0503
320.4018
315.7265
312.7827
311.3662
311.3619
312.7698
315.7052
320.3725
327.0146
335.8399
346.9385
360.2032
375.2804
391.5722
391.4434
374.8939
359.5831
346.121
334.8648
325.9196
319.19
314.4613
311.4851
310.0526
310.0466
311.467
314.4318
319.1504
325.8724
334.8139
346.0713
359.5402
374.8634
391.4311
391.3473
374.6145
359.1558
345.5902
334.2727
325.2984
318.5605
313.8338
310.8621
309.4322
309.4244
310.8393
313.7968
318.5116
325.2411
334.2118
345.5319
359.1064
374.5802
391.3338
391.263
374.3799
358.828
345.2351
333.9434
325.0267
318.3564
313.6909
310.764
309.3567
309.3475
310.7369
313.6476
318.2997
324.961
333.8748
345.1704
358.7743
374.3432
391.2488
391.1481
374.0776
358.4488
344.8946
333.7245
324.9677
318.4574
313.926
311.0928
309.7328
309.7225
311.0626
313.8779
318.395
324.8965
333.6512
344.8268
358.3937
374.0409
391.1343
390.9321
373.5321
357.8023
344.3632
333.4445
324.9884
318.7629
314.4618
311.7864
310.5055
310.4945
311.7543
314.4111
318.6979
324.9152
333.3706
344.2965
357.7495
373.4978
390.9196
390.475
372.4288
356.5431
343.3473
332.8856
324.9396
319.1748
315.2341
312.8
311.639
311.628
312.7679
315.1837
319.111
324.8688
332.8157
343.286
356.4964
372.3998
390.4648
389.4577
370.1612
354.0957
341.4201
331.7679
324.6487
319.589
316.1783
314.0905
313.0992
313.0889
314.0606
316.1319
319.5309
324.5855
331.7071
341.3688
354.0587
370.1398
389.4508
387.0273
365.504
349.526
338.0082
329.7703
323.9393
319.9031
317.2275
315.6062
314.8404
314.8319
315.5814
317.1892
319.8559
323.889
329.7235
337.9706
349.5011
365.4914
387.024
380.4628
355.9461
341.4662
332.493
326.6311
322.692
320.0454
318.3209
317.2862
316.7998
316.794
317.2694
318.2951
320.014
322.6594
326.6018
332.471
341.4535
355.9414
380.4624
359.5241
336.7605
328.5135
324.61
322.368
320.9465
320.0173
319.4204
319.0649
318.8985
318.8963
319.0587
319.4108
320.0058
320.9349
322.3581
324.6033
328.5106
336.7606
359.5248
)
;

boundaryField
{
    movingWall
    {
        type             fixedValue;
        value            uniform 320;
    }
    fixedWalls
    {
        type             fixedValue;
        value            uniform 400;
    }
    frontAndBack
    {
        type             empty;
    }
}

// ************************************************************************* //
