/*--------------------------------*- C++ -*----------------------------------*\\
| =========                 |                                                 |
| \\      /  F ield         | OpenFOAM: The Open Source CFD Toolbox           |
|  \\    /   O peration     | Version:  v1706                                 |
|   \\  /    A nd           | Web:      www.OpenFOAM.com                      |
|    \\/     M anipulation  |                                                 |
\\*---------------------------------------------------------------------------*/
FoamFile
{
    version     2.0;
    format      ascii;
    class       surfaceScalarField;
    location    "0.1";
    object      mdot_f;
}
// * * * * * * * * * * * * * * * * * * * * * * * * * * * * * * * * * * * * * //

dimensions      [1 0 -1 0 0 0 0]


internalField   nonuniform List<scalar>
560
(
-0.00062976
-0.14653
-0.0010011
-0.14662
-0.0011317
-0.14674
-0.0011281
-0.14691
-0.0010383
-0.14712
-0.00088858
-0.14734
-0.00069593
-0.14756
-0.00047478
-0.14775
-0.00023967
-0.1479
-0.14798
-0.00054564
-0.146
-0.00098377
-0.14628
-0.0012084
-0.14659
-0.0012754
-0.14691
-0.0012226
-0.14723
-0.0010783
-0.14754
-0.00086493
-0.14782
-0.00060321
-0.14804
-0.00031164
-0.14821
-0.14831
-0.00059075
-0.14547
-0.0011108
-0.14592
-0.0014049
-0.14643
-0.0015168
-0.14692
-0.0014778
-0.14737
-0.0013183
-0.14778
-0.0010674
-0.14813
-0.00075113
-0.14841
-0.00039171
-0.14861
-0.14872
-0.00072694
-0.14483
-0.0013635
-0.1455
-0.0017282
-0.14624
-0.001869
-0.14693
-0.0018208
-0.14755
-0.0016218
-0.14808
-0.0013122
-0.14852
-0.00092346
-0.14885
-0.00048268
-0.14909
-0.14923
-0.00095735
-0.144
-0.0017579
-0.14495
-0.0022037
-0.146
-0.0023559
-0.14695
-0.0022698
-0.14778
-0.0020023
-0.14846
-0.0016054
-0.149
-0.0011223
-0.1494
-0.00058563
-0.14968
-0.14984
-0.0013176
-0.14283
-0.0023489
-0.14419
-0.0028831
-0.14569
-0.0030143
-0.14701
-0.0028442
-0.14811
-0.0024645
-0.14897
-0.0019477
-0.14961
-0.0013487
-0.15007
-0.00069894
-0.15037
-0.15056
-0.0018988
-0.14109
-0.0032582
-0.14309
-0.0038598
-0.14529
-0.0038956
-0.14715
-0.0035584
-0.14859
-0.0030018
-0.14963
-0.0023259
-0.15037
-0.0015891
-0.15087
-0.00081643
-0.15119
-0.15139
-0.0029415
-0.13832
-0.0047399
-0.14152
-0.0052814
-0.14493
-0.0050454
-0.14753
-0.0044047
-0.14934
-0.0035884
-0.15053
-0.0027081
-0.15131
-0.0018165
-0.15181
-0.00092374
-0.15212
-0.15233
-0.0051918
-0.13327
-0.0073156
-0.13956
-0.0073209
-0.14505
-0.0064474
-0.14851
-0.0053035
-0.15056
-0.0041394
-0.15176
-0.003031
-0.15245
-0.0019934
-0.15286
-0.0010003
-0.15313
-0.15333
-0.011484
-0.12189
-0.011889
-0.13923
-0.0099767
-0.14702
-0.0078871
-0.15063
-0.0060433
-0.15242
-0.0044923
-0.15332
-0.0031828
-0.15376
-0.0020487
-0.154
-0.0010135
-0.15416
-0.15433
0.022932
-0.14489
0.027257
-0.14352
0.026897
-0.14663
0.024734
-0.14844
0.021552
-0.1492
0.017748
-0.14947
0.013564
-0.14954
0.0091466
-0.14955
0.0046011
-0.14958
-0.1497
0.011987
-0.15687
0.017614
-0.14902
0.01905
-0.14795
0.018246
-0.14752
0.016251
-0.14711
0.013569
-0.1467
0.010475
-0.14636
0.0071239
-0.14612
0.0036179
-0.14601
-0.14604
0.0061649
-0.16297
0.010511
-0.15315
0.012274
-0.14952
0.012272
-0.14735
0.011213
-0.14588
0.0095176
-0.14486
0.0074303
-0.14416
0.0050963
-0.14369
0.0026109
-0.14344
-0.14338
0.0026035
-0.16544
0.0051573
-0.15539
0.0065331
-0.15064
0.0068756
-0.14746
0.0064919
-0.1453
0.0056313
-0.14383
0.0044621
-0.14284
0.0030957
-0.1422
0.0016056
-0.14184
-0.14172
0.00010713
-0.16538
0.0009573
-0.1559
0.0016693
-0.15106
0.0020484
-0.14757
0.0021135
-0.14513
0.0019371
-0.14345
0.0015922
-0.14233
0.001137
-0.14161
0.00061139
-0.1412
-0.14105
-0.0017892
-0.16338
-0.0024015
-0.15493
-0.0024537
-0.15071
-0.002247
-0.14751
-0.0019242
-0.14521
-0.0015522
-0.14363
-0.0011609
-0.14256
-0.00076326
-0.14187
-0.00036031
-0.14149
-0.14135
-0.0037429
-0.15943
-0.0056447
-0.15268
-0.0064194
-0.14965
-0.0064058
-0.14727
-0.0058593
-0.14555
-0.0049677
-0.14434
-0.0038612
-0.14352
-0.0026252
-0.14299
-0.0013096
-0.1427
-0.14262
-0.0061551
-0.15307
-0.0094496
-0.14908
-0.010904
-0.14795
-0.010953
-0.14701
-0.010046
-0.14628
-0.00853
-0.14571
-0.0066367
-0.14529
-0.0045157
-0.14501
-0.0022659
-0.14486
-0.14485
-0.010187
-0.1427
-0.015102
-0.14393
-0.016814
-0.14605
-0.016438
-0.14723
-0.014806
-0.14778
-0.012426
-0.14799
-0.0095954
-0.14804
-0.0064983
-0.14804
-0.0032586
-0.14804
-0.14809
-0.019893
-0.12265
-0.024716
-0.13893
-0.024963
-0.14567
-0.023155
-0.14893
-0.020251
-0.1506
-0.016705
-0.15147
-0.012769
-0.15192
-0.0085953
-0.15217
-0.0042978
-0.1523
-0.15239
0.010736
-0.13327
0.011389
-0.13947
0.0099049
-0.1441
0.0080432
-0.14701
0.0062901
-0.1488
0.0047491
-0.14989
0.0033999
-0.15055
0.0021996
-0.15095
0.0010934
-0.15118
-0.1513
0.0053578
-0.13855
0.0071392
-0.1412
0.0070585
-0.14399
0.0062346
-0.14616
0.0051627
-0.14771
0.0040545
-0.14877
0.0029806
-0.14948
0.0019556
-0.14993
0.00097285
-0.15021
-0.15034
0.0029736
-0.14149
0.0045249
-0.14276
0.0049411
-0.1444
0.0046875
-0.14591
0.0040853
-0.14713
0.0033276
-0.14803
0.0025099
-0.14868
0.0016716
-0.14912
0.00083405
-0.14939
-0.14952
0.0018019
-0.14329
0.0029614
-0.14396
0.0034665
-0.14494
0.003478
-0.14596
0.0031659
-0.14685
0.0026616
-0.14757
0.0020535
-0.14811
0.0013877
-0.14849
0.00069377
-0.14873
-0.14885
0.001168
-0.14448
0.002005
-0.14485
0.0024611
-0.14545
0.0025755
-0.14612
0.0024286
-0.14675
0.0020969
-0.14729
0.0016491
-0.14771
0.0011289
-0.14801
0.00056513
-0.14821
-0.14831
0.00079757
-0.14531
0.0013999
-0.14553
0.0017769
-0.1459
0.0019175
-0.14633
0.001858
-0.14675
0.0016405
-0.14713
0.0013101
-0.14743
0.00090535
-0.14766
0.00045339
-0.14781
-0.14789
0.00056772
-0.14593
0.0010042
-0.14605
0.0013047
-0.14627
0.00144
-0.14653
0.0014241
-0.1468
0.00128
-0.14705
0.0010351
-0.14725
0.00072003
-0.1474
0.00035918
-0.14751
-0.14756
0.00041598
-0.14639
0.00073432
-0.14646
0.00096882
-0.14658
0.0010873
-0.14672
0.0010909
-0.14687
0.00099331
-0.14701
0.00081176
-0.14713
0.00056793
-0.14722
0.00028166
-0.14728
-0.1473
0.00030363
-0.14675
0.00053537
-0.14679
0.00071405
-0.14684
0.00081078
-0.1469
0.0008215
-0.14696
0.00075418
-0.14701
0.00062087
-0.14706
0.00043707
-0.1471
0.00021723
-0.14712
-0.14712
0.00019951
0.00036877
0.0004944
0.00056443
0.00057483
0.00052974
0.00043762
0.00031037
0.00016233
)
;

boundaryField
{
    bump
    {
        type             calculated;
        value            uniform 0;
    }
    outlet
    {
        type             calculated;
        value            nonuniform List<scalar>
10
(
0.148
0.14791
0.14775
0.14754
0.14729
0.14704
0.14682
0.14664
0.14657
0.14658
)
;
    }
    inlet
    {
        type             calculated;
        value            nonuniform List<scalar>
10
(
-0.147
-0.147
-0.147
-0.147
-0.147
-0.147
-0.147
-0.147
-0.147
-0.147
)
;
    }
    side1
    {
        type             calculated;
        value            uniform 0;
    }
    side2
    {
        type             calculated;
        value            uniform 0;
    }
    symmetry
    {
        type             calculated;
        value            uniform 0;
    }
    top
    {
        type             calculated;
        value            uniform 0;
    }
}

// ************************************************************************* //
