/*--------------------------------*- C++ -*----------------------------------*\\
| =========                 |                                                 |
| \\      /  F ield         | OpenFOAM: The Open Source CFD Toolbox           |
|  \\    /   O peration     | Version:  v1706                                 |
|   \\  /    A nd           | Web:      www.OpenFOAM.com                      |
|    \\/     M anipulation  |                                                 |
\\*---------------------------------------------------------------------------*/
FoamFile
{
    version     2.0;
    format      ascii;
    class       volScalarField;
    location    "0.1";
    object      p;
}
// * * * * * * * * * * * * * * * * * * * * * * * * * * * * * * * * * * * * * //

dimensions      [1 -1 -2 0 0 0 0]


internalField   nonuniform List<scalar>
300
(
17.852
12.2891
6.6814
2.6182
-0.20784
-2.0838
-3.2176
-3.8401
-4.1019
-4.1234
37.9298
26.5336
14.6402
5.9477
0.23491
-3.1763
-4.9111
-5.5401
-5.5525
-5.3448
56.8161
39.7003
21.6718
8.5907
0.36039
-4.1722
-6.1445
-6.4695
-6.0406
-5.5499
74.9813
51.2648
26.6555
9.4662
-0.69816
-5.5825
-7.0557
-6.587
-5.3451
-4.3256
91.0712
59.5241
27.7937
7.1038
-3.8304
-7.7722
-7.5993
-5.5006
-2.9409
-1.187
100.9776
60.6148
21.8774
-0.67995
-10.1361
-11.155
-7.6729
-2.6465
1.9774
4.7671
96.1557
47.3291
4.0369
-16.4369
-20.4943
-15.4923
-6.5703
2.7005
10.2608
14.5807
59.4649
7.3664
-32.4128
-42.7026
-35.0713
-19.6778
-2.7027
12.2316
23.4234
29.4993
-44.0209
-77.9065
-93.67
-79.3153
-51.4387
-21.1301
6.2292
28.0789
43.3732
51.292
-294.9707
-231.8647
-178.4557
-118.7569
-62.1123
-13.9776
24.3283
52.7881
71.8795
81.6051
-895.2398
-458.9863
-262.2811
-140.2061
-52.4561
11.9232
58.6147
91.0718
111.8129
121.9459
-1074.2278
-566.1453
-292.8827
-126.6219
-16.9804
57.8071
109.0543
143.1372
163.9709
173.6056
-986.2404
-536.7766
-255.0712
-75.6445
41.9505
120.2452
172.334
206.0771
226.1991
235.3011
-723.5396
-384.338
-139.21
23.3837
131.4988
203.4438
250.8956
281.1855
298.8809
306.7442
-348.4146
-137.2503
45.0871
168.7729
251.9396
307.4292
344.021
367.3095
380.7878
386.6031
108.2806
183.8591
284.8657
352.7538
398.4068
429.0481
449.3287
462.2128
469.6226
472.6267
636.9114
563.1251
564.6143
563.261
562.169
561.8485
561.894
562.0033
561.9096
561.5336
1192.6184
958.3948
849.3721
775.1682
726.3774
694.5151
673.8116
660.7438
652.8167
648.9052
1669.7047
1289.072
1084.9547
953.9359
868.8705
812.8863
775.7901
751.7788
737.2288
730.1852
1872.3621
1449.0264
1218.7096
1072.3583
974.3141
907.3554
861.2509
830.3137
811.1784
801.7476
1534.7446
1380.5062
1234.9975
1120.4339
1033.8429
969.8785
923.5904
891.3214
870.8001
860.6432
1377.7477
1305.4341
1215.4084
1132.3495
1062.9865
1008.1181
966.736
936.9822
917.6989
908.3029
1281.6195
1243.4497
1187.6804
1129.547
1076.7261
1032.2864
997.2488
971.3971
954.3244
945.9496
1219.1427
1196.9751
1161.3489
1120.8203
1081.5592
1046.7469
1018.1387
996.5837
982.1004
974.9087
1176.6689
1162.689
1139.1211
1110.6533
1081.6097
1054.8096
1032.0374
1014.4461
1002.5146
996.6026
1147.0509
1137.6129
1121.4586
1101.1082
1079.4795
1058.9373
1040.9952
1026.7921
1017.0967
1012.3221
1126.2872
1119.5677
1107.9895
1093.0297
1076.6597
1060.6966
1046.4943
1035.0794
1027.1921
1023.3218
1112.1481
1107.0661
1098.311
1086.843
1074.0168
1061.2203
1049.678
1040.2936
1033.7737
1030.6097
1103.3674
1099.2679
1092.1841
1082.7774
1072.1173
1061.328
1051.4584
1043.3438
1037.681
1034.9297
1099.3177
1095.9116
1089.5815
1081.0889
1071.4044
1061.5349
1052.4395
1044.9127
1039.5795
1036.7879
)
;

boundaryField
{
    bump
    {
        type             zeroGradient;
    }
    outlet
    {
        type             fixedValue;
        value            uniform 0;
    }
    inlet
    {
        type             zeroGradient;
    }
    side1
    {
        type             empty;
    }
    side2
    {
        type             empty;
    }
    symmetry
    {
        type             symmetry;
    }
    top
    {
        type             symmetry;
    }
}

// ************************************************************************* //
