/*--------------------------------*- C++ -*----------------------------------*\\
| =========                 |                                                 |
| \\      /  F ield         | OpenFOAM: The Open Source CFD Toolbox           |
|  \\    /   O peration     | Version:  v1706                                 |
|   \\  /    A nd           | Web:      www.OpenFOAM.com                      |
|    \\/     M anipulation  |                                                 |
\\*---------------------------------------------------------------------------*/
FoamFile
{
    version     2.0;
    format      ascii;
    class       volVectorField;
    location    "0.1";
    object      U;
}
// * * * * * * * * * * * * * * * * * * * * * * * * * * * * * * * * * * * * * //

dimensions      [0 1 -1 0 0 0 0]


internalField   nonuniform List<vector>
300
(
(59.828 -0.34079 0.00024247)
(59.8252 -0.63684 0.00026243)
(59.855 -0.70988 -4.2736e-05)
(59.9247 -0.71772 -3.6764e-05)
(60.0176 -0.67199 -3.2444e-05)
(60.1201 -0.58743 -2.8277e-05)
(60.2194 -0.47707 -2.3673e-05)
(60.3052 -0.34983 -1.7364e-05)
(60.3713 -0.20907 0.00032561)
(60.4102 -0.067894 0.00033157)
(59.3207 -0.4055 0.00028028)
(59.4963 -0.72455 0.00030929)
(59.7012 -0.80968 1.792e-05)
(59.9009 -0.83723 2.6783e-05)
(60.089 -0.80031 3.3323e-05)
(60.2616 -0.71177 3.9639e-05)
(60.4115 -0.58581 4.6544e-05)
(60.5307 -0.43493 5.5679e-05)
(60.6177 -0.26362 0.00039944)
(60.6672 -0.086546 0.0004079)
(59.0185 -0.52658 0.00016042)
(59.3064 -0.90291 0.00020276)
(59.626 -0.98553 -7.0384e-05)
(59.9151 -1.0141 -5.7576e-05)
(60.169 -0.96967 -4.8074e-05)
(60.3873 -0.86508 -3.8895e-05)
(60.5688 -0.71326 -2.8899e-05)
(60.7087 -0.53093 -1.6164e-05)
(60.808 -0.32436 0.00032899)
(60.8649 -0.10739 0.00034085)
(58.6874 -0.70812 8.6315e-05)
(59.1044 -1.1718 0.00014813)
(59.5548 -1.2374 -0.00010083)
(59.9467 -1.2528 -8.2477e-05)
(60.2782 -1.1856 -6.8881e-05)
(60.5493 -1.0502 -5.5727e-05)
(60.7663 -0.86196 -4.1402e-05)
(60.9305 -0.63969 -2.3906e-05)
(61.0434 -0.39057 0.00032364)
(61.1089 -0.12949 0.00034015)
(58.297 -0.96458 -1.8128e-05)
(58.8765 -1.5464 7.2109e-05)
(59.4905 -1.5743 -0.00014458)
(60.0069 -1.5599 -0.00011829)
(60.4275 -1.4514 -9.8788e-05)
(60.7586 -1.2687 -7.9923e-05)
(61.0131 -1.0322 -5.9377e-05)
(61.1998 -0.76023 -3.5379e-05)
(61.3272 -0.46244 0.00031606)
(61.4033 -0.15352 0.00033912)
(57.8186 -1.3175 -0.00016554)
(58.612 -2.055 -3.3839e-05)
(59.4395 -2.0141 -0.00020764)
(60.1105 -1.9436 -0.00016991)
(60.6335 -1.7699 -0.00014186)
(61.0296 -1.5193 -0.00011478)
(61.319 -1.2177 -8.526e-05)
(61.5245 -0.88775 -5.2273e-05)
(61.6632 -0.53816 0.00030532)
(61.7481 -0.1787 0.0003375)
(57.2166 -1.7981 -0.00037399)
(58.3049 -2.7426 -0.00018196)
(59.4179 -2.5825 -0.00029877)
(60.2831 -2.4137 -0.00024449)
(60.9204 -2.1394 -0.00020408)
(61.3759 -1.7931 -0.00016506)
(61.6921 -1.4097 -0.00012257)
(61.9097 -1.014 -7.7073e-05)
(62.0522 -0.60939 0.0002901)
(62.1434 -0.20142 0.00033499)
(56.4269 -2.452 -0.00066997)
(57.9582 -3.6856 -0.00039007)
(59.4719 -3.3194 -0.00043118)
(60.5743 -2.9776 -0.00035273)
(61.324 -2.5445 -0.00029424)
(61.8182 -2.0684 -0.00023773)
(62.1398 -1.5894 -0.00017642)
(62.35 -1.1234 -0.00011331)
(62.4869 -0.66739 0.00026843)
(62.5833 -0.21963 0.00033118)
(55.2011 -3.3575 -0.0010939)
(57.6212 -5.0398 -0.00068451)
(59.7275 -4.2834 -0.00062485)
(61.0774 -3.6207 -0.00051042)
(61.894 -2.9444 -0.00042523)
(62.3797 -2.3023 -0.00034318)
(62.6659 -1.7181 -0.00025433)
(62.8399 -1.1896 -0.00016608)
(62.9556 -0.69918 0.00023753)
(63.0499 -0.22895 0.0003253)
(53.3104 -4.7869 -0.0016052)
(57.706 -7.2353 -0.0010014)
(60.4414 -5.5309 -0.00084815)
(61.8826 -4.255 -0.00070197)
(62.6401 -3.2389 -0.00059019)
(63.0346 -2.4157 -0.00047992)
(63.2372 -1.7417 -0.00035771)
(63.3508 -1.1773 -0.00023768)
(63.4302 -0.68042 0.00019603)
(63.5167 -0.21977 0.00031707)
(59.282 -7.0923 -0.0023547)
(59.9146 -10.4364 -0.0014477)
(62.0699 -6.8251 -0.0011159)
(63.0509 -4.6623 -0.00090216)
(63.4816 -3.294 -0.00074604)
(63.666 -2.3303 -0.00060631)
(63.7412 -1.6157 -0.00045657)
(63.7841 -1.0589 -0.00030849)
(63.8336 -0.59512 0.00015505)
(63.9252 -0.18746 0.00031172)
(68.1623 -6.3916 -0.0026151)
(64.6413 -10.1992 -0.0017883)
(64.9214 -6.4718 -0.0014229)
(64.9312 -4.267 -0.0011324)
(64.7779 -2.8961 -0.00089172)
(64.5915 -1.9715 -0.00068676)
(64.4277 -1.3164 -0.00050076)
(64.3136 -0.83026 -0.0003297)
(64.2623 -0.44749 0.00016553)
(64.2902 -0.13332 0.00032306)
(73.1927 -4.3072 -0.0020992)
(68.2556 -7.4704 -0.0012529)
(67.0901 -4.9241 -0.0010699)
(66.3013 -3.2165 -0.00089526)
(65.6891 -2.1226 -0.00071502)
(65.2235 -1.3964 -0.00054647)
(64.8857 -0.89834 -0.00039758)
(64.6626 -0.54385 -0.00025791)
(64.5428 -0.27983 0.00022001)
(64.5224 -0.078631 0.00034314)
(75.6702 -1.6984 -0.00024977)
(70.5374 -3.6029 0.00014786)
(68.5447 -2.6804 1.7248e-05)
(67.2136 -1.7261 -6.499e-05)
(66.2724 -1.0889 -9.8553e-05)
(65.6078 -0.67089 -0.00010104)
(65.1461 -0.39759 -8.7474e-05)
(64.8459 -0.21819 -5.2286e-05)
(64.6775 -0.0977 0.00034109)
(64.6223 -0.022521 0.00038073)
(76.1339 0.99647 0.0033794)
(71.3405 0.55131 0.0023884)
(69.1251 -0.16731 0.0016158)
(67.5622 -0.029953 0.0011228)
(66.4631 0.072412 0.00078774)
(65.7006 0.12731 0.00055057)
(65.1799 0.14257 0.00037535)
(64.8439 0.12671 0.00025929)
(64.6519 0.090958 0.00051527)
(64.5815 0.033697 0.00043216)
(74.7076 3.5034 0.0073291)
(70.6201 4.4464 0.0047901)
(68.7164 2.3094 0.0032022)
(67.2509 1.6831 0.0022096)
(66.2001 1.2542 0.0015506)
(65.4655 0.9387 0.001089)
(64.965 0.68828 0.0007489)
(64.6436 0.47375 0.00050939)
(64.4612 0.28053 0.00064538)
(64.3965 0.090767 0.00046671)
(71.5289 5.5509 0.0086244)
(68.506 7.6158 0.0056129)
(67.3334 4.4543 0.0036892)
(66.2645 3.2006 0.0025059)
(65.4699 2.3187 0.0017378)
(64.9034 1.6793 0.0012105)
(64.513 1.1927 0.00082688)
(64.2591 0.79921 0.00056065)
(64.1186 0.46231 0.00065784)
(64.0758 0.14887 0.00046145)
(66.7494 6.8653 0.0060503)
(65.2432 9.662 0.0039463)
(65.1308 5.9808 0.0025458)
(64.7266 4.3016 0.0017411)
(64.3724 3.1082 0.0012303)
(64.0894 2.2414 0.00087243)
(63.8786 1.5874 0.0006002)
(63.7342 1.0624 0.00041465)
(63.6559 0.61381 0.00056139)
(63.6428 0.20042 0.00042008)
(60.3767 7.121 0.0022371)
(61.1315 10.1229 0.0015347)
(62.3845 6.5762 0.001012)
(62.8669 4.7756 0.00078254)
(63.071 3.4945 0.00063749)
(63.1322 2.5504 0.00049685)
(63.135 1.8247 0.00035199)
(63.1215 1.2324 0.00025293)
(63.1145 0.71656 0.00046001)
(63.1329 0.23715 0.00037757)
(53.1715 5.7882 0.000386)
(57.0961 8.3956 0.00038447)
(59.7703 6.0094 0.00023835)
(61.0975 4.5578 0.00024818)
(61.8002 3.4659 0.00025197)
(62.1724 2.6042 0.00021876)
(62.3731 1.8992 0.00015981)
(62.4847 1.3009 0.00012049)
(62.5486 0.76269 0.00037983)
(62.5944 0.25407 0.00034358)
(51.8566 2.3669 0.00026526)
(56.3684 4.6325 0.00029727)
(58.8311 4.5672 4.8709e-05)
(60.2361 3.9051 4.1446e-05)
(61.0487 3.1638 4.1753e-05)
(61.5236 2.4657 3.6365e-05)
(61.7991 1.8345 2.7167e-05)
(61.9613 1.2694 1.8805e-05)
(62.0524 0.74563 0.00032308)
(62.0952 0.24575 0.00032124)
(55.4914 1.166 0.00031159)
(57.1239 2.6551 0.00030426)
(58.5899 3.0471 1.4536e-05)
(59.6647 2.886 3.5507e-06)
(60.4084 2.5008 3.2989e-06)
(60.9103 2.0432 3.3097e-06)
(61.237 1.5697 3.3298e-06)
(61.4464 1.1061 3.3523e-06)
(61.5738 0.65613 0.00030765)
(61.6352 0.21707 0.00031231)
(57.1057 0.64677 0.00030231)
(57.8527 1.607 0.00029855)
(58.7376 2.0382 1.1301e-05)
(59.5063 2.0913 4.3723e-06)
(60.1016 1.9195 4.2577e-06)
(60.5403 1.6357 4.2621e-06)
(60.8489 1.2957 4.2731e-06)
(61.054 0.93018 4.2887e-06)
(61.1821 0.55686 0.00029887)
(61.245 0.18484 0.00030253)
(58.0791 0.39502 0.00028941)
(58.4556 1.0286 0.00028738)
(58.9832 1.3881 9.8406e-06)
(59.5066 1.5109 5.4458e-06)
(59.9516 1.4534 5.3878e-06)
(60.3032 1.282 5.3845e-06)
(60.5665 1.0434 5.3859e-06)
(60.7482 0.76307 5.3928e-06)
(60.8635 0.4596 0.00028672)
(60.9206 0.15238 0.00028948)
(58.7051 0.25829 0.00027216)
(58.9126 0.68968 0.00027102)
(59.2309 0.96724 9.4971e-06)
(59.577 1.098 6.6904e-06)
(59.8954 1.0958 6.6546e-06)
(60.16 0.99419 6.6438e-06)
(60.3671 0.82718 6.6357e-06)
(60.5166 0.61493 6.6324e-06)
(60.6124 0.37308 0.00027018)
(60.6592 0.1237 0.00027219)
(59.1356 0.17673 0.00024945)
(59.2559 0.47957 0.00024881)
(59.4491 0.68991 9.7955e-06)
(59.672 0.80591 7.9987e-06)
(59.8896 0.82714 7.9701e-06)
(60.0778 0.76815 7.9512e-06)
(60.2295 0.6496 7.9335e-06)
(60.3425 0.48883 7.9195e-06)
(60.4163 0.29876 0.00024804)
(60.4523 0.099175 0.00024945)
(59.4474 0.12506 0.00021991)
(59.5171 0.34243 0.00021957)
(59.6324 0.50085 1.0321e-05)
(59.7698 0.59689 9.1778e-06)
(59.9092 0.62512 9.1482e-06)
(60.0346 0.59136 9.1197e-06)
(60.1373 0.50714 9.0914e-06)
(60.2145 0.38502 9.0663e-06)
(60.2657 0.23587 0.00021894)
(60.2904 0.078124 0.00021988)
(59.6792 0.08975 0.00018194)
(59.7183 0.24662 0.00018178)
(59.7821 0.3647 1.0576e-05)
(59.8596 0.44092 9.8725e-06)
(59.9397 0.4678 9.8348e-06)
(60.014 0.44822 9.7938e-06)
(60.0759 0.38889 9.7529e-06)
(60.1227 0.29765 9.7163e-06)
(60.1533 0.18298 0.00018126)
(60.1665 0.060603 0.00018184)
(59.8506 0.061936 0.00013381)
(59.8711 0.17132 0.00013373)
(59.8998 0.25575 9.8546e-06)
(59.9352 0.31227 9.4517e-06)
(59.9722 0.33424 9.3966e-06)
(60.0065 0.32269 9.3376e-06)
(60.0355 0.28176 9.2818e-06)
(60.0577 0.21698 9.2335e-06)
(60.0716 0.1346 0.00013326)
(60.0752 0.044976 0.00013357)
(59.9613 0.035243 1.6494e-07)
(59.9681 0.10018 1.2827e-07)
(59.9753 0.15192 -6.653e-05)
(59.9844 0.18631 -6.6709e-05)
(59.9939 0.20039 -6.6758e-05)
(60.0026 0.19417 -6.6808e-05)
(60.01 0.16991 -6.6852e-05)
(60.0155 0.13125 -6.6887e-05)
(60.0189 0.082954 -1.9001e-07)
(60.0185 0.028509 -7.0243e-08)
)
;

boundaryField
{
    bump
    {
        type             noSlip;
    }
    outlet
    {
        type             zeroGradient;
    }
    inlet
    {
        type             fixedValue;
        value            uniform (60 0 0);
    }
    side1
    {
        type             empty;
    }
    side2
    {
        type             empty;
    }
    symmetry
    {
        type             symmetry;
    }
    top
    {
        type             symmetry;
    }
}

// ************************************************************************* //
