/*--------------------------------*- C++ -*----------------------------------*\\
| =========                 |                                                 |
| \\      /  F ield         | OpenFOAM: The Open Source CFD Toolbox           |
|  \\    /   O peration     | Version:  v1706                                 |
|   \\  /    A nd           | Web:      www.OpenFOAM.com                      |
|    \\/     M anipulation  |                                                 |
\\*---------------------------------------------------------------------------*/
FoamFile
{
    version     2.0;
    format      ascii;
    class       surfaceScalarField;
    location    "0.75";
    object      mdot_f;
}
// * * * * * * * * * * * * * * * * * * * * * * * * * * * * * * * * * * * * * //

dimensions      [1 0 -1 0 0 0 0]


internalField   nonuniform List<scalar>
560
(
-0.00018507
-0.13998
-0.00022146
-0.14243
-0.0003795
-0.14542
-0.00055361
-0.14752
-0.00066965
-0.14855
-0.00070801
-0.14897
-0.00060849
-0.14914
-0.00044174
-0.14916
-0.00023404
-0.14911
-0.14907
-0.0002144
-0.13977
-0.00036707
-0.14229
-0.00053479
-0.14526
-0.0006718
-0.14739
-0.00072439
-0.14851
-0.00071195
-0.14899
-0.00060911
-0.14924
-0.00044008
-0.14933
-0.00023062
-0.14933
-0.1493
-0.00031134
-0.13946
-0.00054357
-0.14208
-0.00074287
-0.14508
-0.00087305
-0.14728
-0.00088041
-0.14851
-0.00081739
-0.14906
-0.00068226
-0.14939
-0.00048674
-0.14953
-0.00025353
-0.14957
-0.14956
-0.0004894
-0.13898
-0.00081274
-0.14178
-0.0010414
-0.14487
-0.0011676
-0.14717
-0.0011302
-0.14857
-0.0010074
-0.1492
-0.00081956
-0.14959
-0.00057635
-0.14979
-0.00029847
-0.14986
-0.14986
-0.00078531
-0.13821
-0.0012203
-0.14137
-0.0014534
-0.14466
-0.0015601
-0.14708
-0.0014697
-0.14868
-0.0012738
-0.14941
-0.0010153
-0.14987
-0.00070533
-0.15011
-0.00036311
-0.15021
-0.15023
-0.0012221
-0.13701
-0.0017818
-0.14084
-0.0019816
-0.14449
-0.0020525
-0.14704
-0.0019046
-0.14885
-0.0016222
-0.14971
-0.0012725
-0.15023
-0.00087442
-0.15053
-0.00044709
-0.15066
-0.15069
-0.0017444
-0.13528
-0.0024876
-0.14013
-0.0026651
-0.14433
-0.0026978
-0.14703
-0.0024779
-0.14909
-0.002078
-0.15013
-0.0016019
-0.15073
-0.0010859
-0.15106
-0.0005503
-0.15121
-0.15125
-0.0022826
-0.13302
-0.0035426
-0.1389
-0.0037759
-0.14412
-0.0036839
-0.14714
-0.0032821
-0.14951
-0.0026726
-0.15076
-0.0020047
-0.15141
-0.0013316
-0.15175
-0.00066626
-0.15189
-0.15192
-0.0036227
-0.12941
-0.005971
-0.13658
-0.0059432
-0.14417
-0.0052564
-0.14785
-0.0043586
-0.15042
-0.0033748
-0.15176
-0.002438
-0.15236
-0.0015779
-0.15262
-0.00077688
-0.1527
-0.1527
-0.0096036
-0.11983
-0.011191
-0.13501
-0.0093972
-0.14598
-0.0072518
-0.15001
-0.0054874
-0.1522
-0.0040152
-0.15324
-0.00279
-0.1536
-0.0017589
-0.15366
-0.00085217
-0.15361
-0.15356
0.020773
-0.14061
0.024794
-0.13905
0.025586
-0.14679
0.024273
-0.1487
0.021433
-0.14937
0.017786
-0.1496
0.013658
-0.14948
0.0092336
-0.14924
0.0046472
-0.14904
-0.14891
0.012369
-0.15299
0.017355
-0.14404
0.018806
-0.14824
0.018226
-0.14813
0.016321
-0.14747
0.013647
-0.14693
0.010524
-0.14636
0.0071351
-0.14586
0.0035983
-0.1455
-0.14532
0.0072233
-0.16022
0.011603
-0.14842
0.012931
-0.14957
0.012735
-0.14793
0.011534
-0.14627
0.0097099
-0.14511
0.0075169
-0.14417
0.0051087
-0.14345
0.0025804
-0.14298
-0.14273
0.0036891
-0.16391
0.0068955
-0.15163
0.007759
-0.15044
0.0077135
-0.14789
0.0070477
-0.1456
0.0059632
-0.14402
0.0046293
-0.14283
0.0031511
-0.14197
0.0015931
-0.14142
-0.14114
0.00089511
-0.1648
0.0027194
-0.15345
0.0030412
-0.15075
0.0030232
-0.14787
0.0027849
-0.14536
0.0023614
-0.1436
0.001832
-0.1423
0.0012449
-0.14138
0.00062867
-0.1408
-0.14051
-0.0016001
-0.1632
-0.0012709
-0.15377
-0.001455
-0.15057
-0.0014872
-0.14783
-0.0013584
-0.14548
-0.0011677
-0.14378
-0.000924
-0.14254
-0.00063948
-0.14166
-0.00032662
-0.14111
-0.14083
-0.004139
-0.15906
-0.0053257
-0.15258
-0.0059767
-0.14991
-0.0060149
-0.14778
-0.0055323
-0.14596
-0.0047298
-0.14458
-0.0037081
-0.14355
-0.0025431
-0.14282
-0.0012913
-0.14235
-0.14212
-0.006886
-0.15217
-0.0096867
-0.14977
-0.010876
-0.14871
-0.010873
-0.14778
-0.0099621
-0.14687
-0.0084696
-0.14607
-0.0066066
-0.14541
-0.0045133
-0.14491
-0.0022862
-0.14457
-0.1444
-0.010533
-0.14163
-0.015341
-0.14495
-0.016924
-0.14712
-0.016533
-0.14816
-0.0149
-0.14849
-0.012519
-0.14844
-0.0096868
-0.14824
-0.0065826
-0.14801
-0.0033241
-0.14783
-0.14772
-0.019329
-0.12229
-0.024638
-0.13963
-0.02504
-0.14671
-0.023312
-0.14988
-0.020449
-0.15135
-0.01691
-0.15197
-0.012958
-0.15218
-0.0087533
-0.1522
-0.0044056
-0.15217
-0.15212
0.011314
-0.1336
0.011833
-0.14014
0.010197
-0.14507
0.0082078
-0.14789
0.006347
-0.14948
0.0047294
-0.15035
0.0033409
-0.15078
0.0021294
-0.15099
0.0010357
-0.15106
-0.15108
0.0055775
-0.13917
0.0074151
-0.14197
0.0072192
-0.14487
0.0063001
-0.14696
0.0051608
-0.14833
0.0040065
-0.14918
0.0029129
-0.14968
0.001893
-0.14996
0.00093189
-0.1501
-0.15015
0.0030702
-0.14224
0.0046629
-0.14356
0.0050147
-0.14521
0.0046895
-0.14663
0.0040397
-0.14768
0.0032541
-0.14839
0.0024294
-0.14885
0.0016076
-0.14913
0.00080004
-0.14928
-0.14935
0.0018249
-0.14406
0.0030011
-0.14472
0.0034672
-0.14567
0.0034271
-0.14658
0.0030793
-0.14732
0.0025609
-0.14787
0.001957
-0.14824
0.0013159
-0.14848
0.00066128
-0.14862
-0.14868
0.0011437
-0.1452
0.0019751
-0.14555
0.0023984
-0.14609
0.0024734
-0.14665
0.0022994
-0.14714
0.0019637
-0.14753
0.0015307
-0.1478
0.0010435
-0.14799
0.00052889
-0.1481
-0.14815
0.00074031
-0.14594
0.0013183
-0.14612
0.0016566
-0.14642
0.0017632
-0.14675
0.0016833
-0.14706
0.0014687
-0.14731
0.0011637
-0.14749
0.00080255
-0.14762
0.0004097
-0.1477
-0.14774
0.00048475
-0.14642
0.00088044
-0.14651
0.0011325
-0.14667
0.0012332
-0.14685
0.0012013
-0.14702
0.0010656
-0.14717
0.00085542
-0.14728
0.00059547
-0.14736
0.00030586
-0.14741
-0.14743
0.00031242
-0.14673
0.00057489
-0.14677
0.00075107
-0.14684
0.00083108
-0.14692
0.00082147
-0.14701
0.00073776
-0.14708
0.00059802
-0.14713
0.00041927
-0.14717
0.00021644
-0.1472
-0.14721
0.0001883
-0.14691
0.00034943
-0.14692
0.00046096
-0.14695
0.00051529
-0.14697
0.00051424
-0.147
0.00046565
-0.14703
0.00037994
-0.14704
0.00026768
-0.14706
0.00013869
-0.14707
-0.14707
9.0969e-05
0.00016886
0.00022369
0.00025111
0.00025159
0.00022859
0.00018702
0.00013189
6.7909e-05
)
;

boundaryField
{
    bump
    {
        type             calculated;
        value            uniform 0;
    }
    outlet
    {
        type             calculated;
        value            nonuniform List<scalar>
10
(
0.14875
0.14881
0.14889
0.14893
0.14887
0.14851
0.14758
0.14562
0.14265
0.14045
)
;
    }
    inlet
    {
        type             calculated;
        value            nonuniform List<scalar>
10
(
-0.147
-0.147
-0.147
-0.147
-0.147
-0.147
-0.147
-0.147
-0.147
-0.147
)
;
    }
    side1
    {
        type             calculated;
        value            uniform 0;
    }
    side2
    {
        type             calculated;
        value            uniform 0;
    }
    symmetry
    {
        type             calculated;
        value            uniform 0;
    }
    top
    {
        type             calculated;
        value            uniform 0;
    }
}

// ************************************************************************* //
