/*--------------------------------*- C++ -*----------------------------------*\\
| =========                 |                                                 |
| \\      /  F ield         | OpenFOAM: The Open Source CFD Toolbox           |
|  \\    /   O peration     | Version:  v1706                                 |
|   \\  /    A nd           | Web:      www.OpenFOAM.com                      |
|    \\/     M anipulation  |                                                 |
\\*---------------------------------------------------------------------------*/
FoamFile
{
    version     2.0;
    format      ascii;
    class       volScalarField;
    location    "0.75";
    object      p;
}
// * * * * * * * * * * * * * * * * * * * * * * * * * * * * * * * * * * * * * //

dimensions      [1 -1 -2 0 0 0 0]


internalField   nonuniform List<scalar>
300
(
22.9394
13.8462
10.2126
3.4353
0.56028
-0.77983
-4.132
-6.1658
-7.1493
-7.5964
47.5435
30.6514
20.5585
7.1893
-0.60271
-4.3443
-10.4456
-14.8538
-17.3163
-18.4978
70.6153
46.1169
28.8153
7.9704
-5.8943
-11.9195
-19.6948
-25.782
-29.3118
-30.9745
83.4558
53.0393
31.4923
5.0965
-14.8268
-23.0338
-31.792
-39.0051
-43.326
-45.3639
79.7005
46.8299
27.353
-0.031522
-25.4285
-36.3445
-46.0848
-54.3083
-59.3583
-61.7308
68.0428
33.9054
21.2162
-3.2332
-34.7252
-50.3634
-62.0991
-71.7043
-77.5946
-80.3224
90.1723
40.2731
23.7725
-1.1596
-42.0501
-65.6765
-80.7639
-91.9147
-98.5636
-101.5963
217.172
100.1894
38.3049
-0.90007
-54.121
-86.8848
-104.9665
-116.6002
-123.1366
-126.0242
449.1455
194.0546
34.0753
-27.9956
-85.7885
-121.1774
-138.0044
-147.1732
-151.7723
-153.6736
477.0927
170.494
-54.9233
-112.1966
-149.0747
-172.2936
-180.418
-183.0333
-183.5422
-183.5763
-254.3465
-129.3035
-249.3965
-246.6997
-236.4512
-234.2837
-227.5821
-220.7635
-215.8148
-213.4223
-738.4136
-393.7067
-414.7037
-363.557
-315.959
-290.6563
-270.165
-254.8381
-244.8411
-240.0309
-1057.0807
-612.2154
-545.906
-459.4624
-382.8342
-337.3793
-304.5095
-281.6732
-267.2879
-260.3685
-1235.8098
-762.1312
-624.8736
-519.5515
-425.7588
-366.7082
-325.2838
-297.2492
-279.8721
-271.5323
-1293.1785
-842.9549
-650.2595
-537.476
-438.364
-373.5156
-328.662
-298.6916
-280.3061
-271.5161
-1227.8695
-850.5092
-623.1986
-510.8271
-417.7145
-355.585
-313.1677
-285.0565
-267.9377
-259.7801
-996.6303
-755.2604
-534.5591
-437.0936
-363.4807
-313.8849
-280.1636
-257.7555
-244.0818
-237.5257
-523.3349
-504.7843
-368.8907
-317.1359
-279.9937
-253.2152
-233.8493
-220.2962
-211.7261
-207.4623
179.9922
-104.3038
-143.8203
-170.9069
-181.6018
-183.1315
-180.8189
-177.5374
-174.7922
-173.1194
730.6253
242.8949
46.9445
-45.1506
-92.3369
-116.5863
-128.7541
-134.5925
-137.1882
-137.9785
433.2781
246.6585
105.734
20.3998
-32.2093
-64.5958
-84.1964
-95.7308
-102.089
-104.8157
287.0838
206.1571
118.2745
51.3421
4.0814
-28.2811
-49.8012
-63.5527
-71.6637
-75.3693
203.3596
163.6054
110.8642
63.0501
24.9687
-3.5557
-23.953
-37.773
-46.2921
-50.3187
152.4792
130.9481
98.592
65.4142
36.2887
12.7638
-5.0979
-17.7797
-25.8675
-29.7836
120.1483
107.5006
86.9068
63.8742
42.0637
23.3223
8.3653
-2.6754
-9.9127
-13.4818
98.9973
91.0337
77.3687
61.1126
44.799
30.0649
17.8129
8.471
2.2061
-0.92895
84.9926
79.6486
70.1502
58.3409
45.9552
34.3155
24.3091
16.4747
11.1201
8.4085
75.8929
72.0504
65.0567
56.0827
46.3533
36.9221
28.5969
21.9401
17.3228
14.9646
70.558
67.5261
61.927
54.587
46.4438
38.3753
31.1159
25.2231
21.0938
18.9735
68.4003
65.6812
60.6343
53.9502
46.4518
38.9443
32.1283
26.5569
22.6337
20.6148
)
;

boundaryField
{
    bump
    {
        type             zeroGradient;
    }
    outlet
    {
        type             fixedValue;
        value            uniform 0;
    }
    inlet
    {
        type             zeroGradient;
    }
    side1
    {
        type             empty;
    }
    side2
    {
        type             empty;
    }
    symmetry
    {
        type             symmetry;
    }
    top
    {
        type             symmetry;
    }
}

// ************************************************************************* //
