/*--------------------------------*- C++ -*----------------------------------*\\
| =========                 |                                                 |
| \\      /  F ield         | OpenFOAM: The Open Source CFD Toolbox           |
|  \\    /   O peration     | Version:  v1706                                 |
|   \\  /    A nd           | Web:      www.OpenFOAM.com                      |
|    \\/     M anipulation  |                                                 |
\\*---------------------------------------------------------------------------*/
FoamFile
{
    version     2.0;
    format      ascii;
    class       volVectorField;
    location    "0.75";
    object      U;
}
// * * * * * * * * * * * * * * * * * * * * * * * * * * * * * * * * * * * * * //

dimensions      [0 1 -1 0 0 0 0]


internalField   nonuniform List<vector>
300
(
(57.3272 -0.19439 0.014577)
(58.2257 0.030746 0.010176)
(59.4349 -0.0010024 0.0058099)
(60.236 -0.19418 0.0035589)
(60.618 -0.17836 0.0021888)
(60.7626 -0.32572 0.0013269)
(60.7866 -0.27098 0.00078951)
(60.7698 -0.21238 0.00058764)
(60.7397 -0.14179 0.0021449)
(60.7128 -0.050983 0.0021993)
(56.9954 -0.24362 0.014614)
(58.0195 -0.035228 0.010183)
(59.2572 -0.053906 0.005869)
(60.1254 -0.26771 0.0036182)
(60.5563 -0.19918 0.0022491)
(60.7356 -0.33884 0.0013879)
(60.8282 -0.28309 0.00085203)
(60.852 -0.21596 0.00065157)
(60.8437 -0.14266 0.0021608)
(60.8279 -0.051116 0.002223)
(56.8112 -0.32935 0.014445)
(57.8918 -0.14933 0.010003)
(59.1638 -0.14391 0.005757)
(60.0775 -0.3877 0.0035167)
(60.5605 -0.26231 0.0021543)
(60.7665 -0.38874 0.0012974)
(60.8894 -0.33108 0.00076528)
(60.9381 -0.24526 0.00056757)
(60.9452 -0.15869 0.0020273)
(60.937 -0.056582 0.0020973)
(56.6279 -0.45295 0.014306)
(57.7737 -0.32098 0.0098663)
(59.0865 -0.2841 0.005702)
(60.0492 -0.56516 0.0034799)
(60.5937 -0.37211 0.0021281)
(60.8269 -0.46941 0.0012777)
(60.9725 -0.40716 0.00075063)
(61.0421 -0.29616 0.0005558)
(61.0627 -0.18743 0.0019648)
(61.0612 -0.066252 0.002042)
(56.4836 -0.617 0.01414)
(57.7021 -0.54948 0.0097136)
(59.0406 -0.4674 0.0056388)
(60.0375 -0.80091 0.0034396)
(60.6499 -0.53281 0.0021008)
(60.9154 -0.57859 0.0012581)
(61.0815 -0.50635 0.00073645)
(61.1703 -0.36571 0.0005437)
(61.2037 -0.22719 0.0019007)
(61.2083 -0.079503 0.0019845)
(56.3512 -0.82289 0.013961)
(57.662 -0.82294 0.0095584)
(59.0103 -0.66663 0.0055758)
(60.0206 -1.0849 0.0034012)
(60.7123 -0.75044 0.0020761)
(61.0262 -0.72037 0.0012409)
(61.2182 -0.62883 0.00072419)
(61.3276 -0.45351 0.00053179)
(61.374 -0.2775 0.0018355)
(61.385 -0.096117 0.0019249)
(55.966 -1.0855 0.013786)
(57.4899 -1.1513 0.0094139)
(58.9227 -0.86545 0.0055214)
(59.9666 -1.4159 0.0033701)
(60.7703 -1.0448 0.0020572)
(61.1641 -0.91099 0.0012283)
(61.393 -0.78037 0.00071515)
(61.5242 -0.56091 0.00052056)
(61.5827 -0.33863 0.00177)
(61.599 -0.1161 0.0018637)
(54.6437 -1.5053 0.013628)
(56.8399 -1.7069 0.0092928)
(58.7061 -1.1619 0.0054837)
(59.9021 -1.8448 0.0033512)
(60.8651 -1.4583 0.0020473)
(61.3652 -1.1753 0.0012223)
(61.6331 -0.96662 0.00071043)
(61.778 -0.68604 0.00051033)
(61.8408 -0.40785 0.0017044)
(61.8581 -0.13826 0.0018011)
(51.8266 -2.4295 0.013499)
(55.5953 -3.0959 0.0092125)
(58.537 -1.9004 0.0054735)
(60.031 -2.4824 0.0033505)
(61.1291 -2.0204 0.0020496)
(61.7023 -1.5156 0.0012244)
(61.9766 -1.1752 0.00071084)
(62.1071 -0.81453 0.00050138)
(62.1556 -0.47546 0.0016391)
(62.1652 -0.15926 0.0017373)
(49.5981 -4.4099 0.01344)
(54.8738 -6.2517 0.0092229)
(59.0582 -3.4851 0.0055131)
(60.7085 -3.3367 0.0033774)
(61.7238 -2.6446 0.0020684)
(62.2369 -1.8631 0.0012371)
(62.4426 -1.3575 0.00071784)
(62.5125 -0.91394 0.00049477)
(62.5211 -0.52386 0.0015746)
(62.5118 -0.17367 0.0016727)
(55.1256 -6.8753 0.013446)
(56.9063 -10.5111 0.0092722)
(60.8668 -5.5119 0.0055489)
(62.1036 -4.0491 0.0033909)
(62.6935 -3.0755 0.0020756)
(62.9622 -2.0806 0.0012431)
(63.009 -1.4411 0.0007222)
(62.9716 -0.94484 0.00048626)
(62.9156 -0.5339 0.0015088)
(62.8762 -0.17597 0.0016081)
(63.8721 -6.0263 0.012946)
(61.1446 -11.0695 0.0082702)
(63.6396 -5.5162 0.0046916)
(63.9248 -3.7756 0.0028639)
(63.8647 -2.854 0.0017582)
(63.7642 -1.8784 0.0010603)
(63.593 -1.2792 0.00062763)
(63.4245 -0.82734 0.00044963)
(63.2963 -0.46426 0.0014928)
(63.2262 -0.15055 0.0015388)
(69.5837 -3.7707 0.011832)
(64.7562 -9.264 0.0071359)
(65.888 -4.6942 0.0038882)
(65.4201 -2.9479 0.0023907)
(64.852 -2.2766 0.0014694)
(64.4436 -1.4634 0.00089158)
(64.0865 -0.98157 0.00053863)
(63.8062 -0.62541 0.00041229)
(63.6148 -0.3482 0.0014536)
(63.5161 -0.11046 0.0014578)
(73.1087 -0.93622 0.010391)
(67.5595 -6.0019 0.0058696)
(67.502 -3.2862 0.0031566)
(66.512 -1.7108 0.0019809)
(65.581 -1.4047 0.0012358)
(64.9359 -0.86472 0.00076509)
(64.4349 -0.56509 0.00047392)
(64.0691 -0.35034 0.00038564)
(63.8296 -0.192 0.0013977)
(63.7092 -0.058267 0.0013709)
(74.7993 2.0389 0.009585)
(69.3163 -1.9498 0.0050346)
(68.3511 -1.4559 0.0027377)
(67.0796 -0.24727 0.0017358)
(65.9557 -0.33616 0.001092)
(65.1702 -0.1401 0.00068861)
(64.586 -0.066367 0.00043492)
(64.1724 -0.025356 0.00036964)
(63.9071 -0.008722 0.0013268)
(63.7753 0.001677 0.0012805)
(74.8022 4.8469 0.0094555)
(69.9311 2.3545 0.0048474)
(68.4086 0.68805 0.0026615)
(67.0631 1.2753 0.0016846)
(65.9201 0.81425 0.0010564)
(65.105 0.63701 0.00066822)
(64.5102 0.46459 0.00042328)
(64.0943 0.31762 0.00036457)
(63.83 0.18365 0.0012439)
(63.6994 0.063952 0.0011894)
(73.0143 7.2266 0.0088053)
(69.207 6.3693 0.0046173)
(67.6279 3.0026 0.0024692)
(66.4271 2.7235 0.0015407)
(65.4469 1.9127 0.00096269)
(64.7292 1.3796 0.00060569)
(64.2047 0.9674 0.00038177)
(63.8365 0.64039 0.00033475)
(63.6016 0.36406 0.0011408)
(63.4849 0.12245 0.0010947)
(68.8675 8.7864 0.0064101)
(66.8337 9.5193 0.0035433)
(65.8982 5.1426 0.0017719)
(65.1706 3.9353 0.001082)
(64.5581 2.797 0.0006885)
(64.0738 1.9816 0.00043817)
(63.6999 1.3742 0.0002772)
(63.426 0.90212 0.00025824)
(63.2464 0.51088 0.0010208)
(63.1549 0.17034 0.00099594)
(61.8164 8.9142 0.0030392)
(62.712 10.8431 0.0019237)
(63.3126 6.484 0.0008788)
(63.4599 4.6211 0.00054181)
(63.3938 3.2951 0.00037625)
(63.2401 2.3397 0.00025407)
(63.0684 1.6273 0.00016396)
(62.9173 1.0708 0.00016868)
(62.8078 0.60812 0.00090264)
(62.7482 0.20238 0.00090025)
(53.878 6.8523 0.0010159)
(58.3316 9.1492 0.00089552)
(60.7232 6.2672 0.00031257)
(61.7793 4.5189 0.00018365)
(62.2285 3.3124 0.00014255)
(62.3865 2.4088 0.00010389)
(62.4085 1.7046 6.888e-05)
(62.3769 1.1349 8.1151e-05)
(62.3367 0.64966 0.00079431)
(62.3089 0.21598 0.0008112)
(52.5022 2.6558 0.00069693)
(57.0315 4.9308 0.00073341)
(59.4514 4.6685 0.00014488)
(60.7022 3.8044 3.8102e-05)
(61.3507 2.9751 2.2614e-05)
(61.6713 2.2539 1.6247e-05)
(61.814 1.6382 1.0482e-05)
(61.866 1.1095 6.2948e-06)
(61.8779 0.6415 0.00070171)
(61.8757 0.21194 0.00073277)
(55.8748 1.2563 0.00065677)
(57.6615 2.7763 0.00065412)
(59.1585 3.0904 6.948e-05)
(60.1372 2.8134 5.3206e-06)
(60.7434 2.3615 3.6362e-07)
(61.1009 1.8786 4.8814e-08)
(61.2995 1.4134 1.3099e-08)
(61.4021 0.98016 1.8512e-09)
(61.4503 0.57561 0.00063495)
(61.4677 0.19137 0.00066007)
(57.533 0.67376 0.00058488)
(58.3209 1.6462 0.00058355)
(59.2056 2.039 3.9607e-05)
(59.9017 2.0241 2.1599e-06)
(60.3901 1.8066 1.4124e-07)
(60.7105 1.5017 2.6486e-08)
(60.9088 1.1664 7.2853e-10)
(61.0241 0.82696 -1.0936e-08)
(61.0856 0.49269 0.00056957)
(61.1113 0.16473 0.00058689)
(58.4844 0.39381 0.00051239)
(58.8661 1.0223 0.0005117)
(59.3742 1.3598 2.2176e-05)
(59.8347 1.4388 8.748e-07)
(60.1927 1.3497 7.0994e-08)
(60.4479 1.1648 1.7205e-08)
(60.6181 0.93025 -6.307e-09)
(60.7243 0.67265 -1.8931e-08)
(60.7849 0.40593 0.00050229)
(60.8115 0.13643 0.00051363)
(59.0658 0.24408 0.00043958)
(59.2621 0.65773 0.00043922)
(59.5527 0.91734 1.2116e-05)
(59.8437 1.0165 3.6899e-07)
(60.0888 0.99122 4.9234e-08)
(60.2754 0.88211 1.2873e-08)
(60.407 0.72117 -1.0349e-08)
(60.4934 0.53033 -2.4065e-08)
(60.5446 0.32362 0.00043332)
(60.568 0.10926 0.00044032)
(59.4366 0.15679 0.00036658)
(59.5402 0.43256 0.00036639)
(59.7042 0.62265 6.3596e-06)
(59.8802 0.71306 1.7589e-07)
(60.0377 0.71602 4.2284e-08)
(60.1636 0.65286 1.0555e-08)
(60.2564 0.54401 -1.2837e-08)
(60.3196 0.40567 -2.7613e-08)
(60.3582 0.24988 0.00036296)
(60.3762 0.084697 0.00036698)
(59.6788 0.1021 0.00029345)
(59.7326 0.28593 0.00029336)
(59.8213 0.42036 3.1293e-06)
(59.9212 0.49266 1.0536e-07)
(60.0144 0.50555 3.9681e-08)
(60.0918 0.4696 9.0295e-09)
(60.1507 0.39719 -1.4621e-08)
(60.1919 0.29951 -3.0344e-08)
(60.2176 0.18591 0.00029152)
(60.2297 0.06323 0.00029361)
(59.837 0.065483 0.00022023)
(59.8626 0.18521 0.00022018)
(59.9061 0.27613 1.3931e-06)
(59.9565 0.32881 8.123e-08)
(60.005 0.34266 3.8238e-08)
(60.0463 0.32267 7.7497e-09)
(60.0784 0.27598 -1.6143e-08)
(60.1012 0.20986 -3.2658e-08)
(60.1157 0.13105 0.00021929)
(60.1226 0.044705 0.00022022)
(59.9352 0.039209 0.00014693)
(59.9449 0.11161 0.00014691)
(59.9619 0.16789 5.3877e-07)
(59.9819 0.20197 7.3608e-08)
(60.0015 0.21264 3.7066e-08)
(60.0185 0.20208 6.5458e-09)
(60.0318 0.17416 -1.754e-08)
(60.0414 0.1332 -3.4665e-08)
(60.0476 0.083541 0.00014649)
(60.0508 0.028564 0.00014682)
(59.9856 0.018546 5.4553e-08)
(59.9877 0.05297 4.3901e-08)
(59.9914 0.079975 -7.3305e-05)
(59.9959 0.096741 -7.3411e-05)
(60.0003 0.10241 -7.3433e-05)
(60.0041 0.097802 -7.3452e-05)
(60.0072 0.084627 -7.3467e-05)
(60.0094 0.064899 -7.3477e-05)
(60.0108 0.040681 -1.0339e-07)
(60.0116 0.013822 -4.1076e-08)
)
;

boundaryField
{
    bump
    {
        type             noSlip;
    }
    outlet
    {
        type             zeroGradient;
    }
    inlet
    {
        type             fixedValue;
        value            uniform (60 0 0);
    }
    side1
    {
        type             empty;
    }
    side2
    {
        type             empty;
    }
    symmetry
    {
        type             symmetry;
    }
    top
    {
        type             symmetry;
    }
}

// ************************************************************************* //
