/*--------------------------------*- C++ -*----------------------------------*\\
| =========                 |                                                 |
| \\      /  F ield         | OpenFOAM: The Open Source CFD Toolbox           |
|  \\    /   O peration     | Version:  v1706                                 |
|   \\  /    A nd           | Web:      www.OpenFOAM.com                      |
|    \\/     M anipulation  |                                                 |
\\*---------------------------------------------------------------------------*/
FoamFile
{
    version     2.0;
    format      ascii;
    class       surfaceScalarField;
    location    "0.65";
    object      mdot_f;
}
// * * * * * * * * * * * * * * * * * * * * * * * * * * * * * * * * * * * * * //

dimensions      [1 0 -1 0 0 0 0]


internalField   nonuniform List<scalar>
560
(
-0.00049517
-0.14023
-0.00071327
-0.14276
-0.00083238
-0.1456
-0.00084174
-0.14758
-0.00083255
-0.1486
-0.00079728
-0.14907
-0.00065709
-0.1493
-0.00045884
-0.14938
-0.00023448
-0.14939
-0.14939
-0.0003473
-0.13988
-0.00060985
-0.14252
-0.00079828
-0.14543
-0.00087557
-0.14752
-0.00085774
-0.14863
-0.0007887
-0.14915
-0.00064704
-0.14945
-0.00045387
-0.14958
-0.00023287
-0.14962
-0.14962
-0.00035431
-0.13954
-0.00064808
-0.14226
-0.00088026
-0.14522
-0.00099702
-0.14742
-0.00097233
-0.14868
-0.00087306
-0.14927
-0.0007058
-0.14963
-0.00049427
-0.14981
-0.00025542
-0.14987
-0.14988
-0.00049381
-0.13906
-0.00084196
-0.14194
-0.0010942
-0.145
-0.0012273
-0.14731
-0.0011773
-0.14875
-0.0010348
-0.14943
-0.00082846
-0.14984
-0.00057377
-0.15007
-0.00029381
-0.15016
-0.15018
-0.00077539
-0.13831
-0.0012066
-0.14153
-0.0014472
-0.14478
-0.0015671
-0.14721
-0.0014746
-0.14885
-0.001274
-0.14965
-0.0010094
-0.15012
-0.00069315
-0.15039
-0.00035433
-0.15051
-0.15054
-0.0012018
-0.13713
-0.0017455
-0.14101
-0.0019379
-0.14461
-0.0020184
-0.14715
-0.0018803
-0.149
-0.0015994
-0.14993
-0.001249
-0.15048
-0.00085425
-0.15079
-0.00043593
-0.15093
-0.15097
-0.0017184
-0.13543
-0.0024475
-0.14031
-0.0026099
-0.14445
-0.0026436
-0.14713
-0.0024368
-0.14921
-0.0020414
-0.15032
-0.0015702
-0.15095
-0.0010583
-0.1513
-0.00053276
-0.15146
-0.1515
-0.0022687
-0.13317
-0.0035192
-0.13906
-0.0037363
-0.14424
-0.0036276
-0.14723
-0.0032272
-0.14961
-0.0026273
-0.15092
-0.0019699
-0.15161
-0.0013007
-0.15196
-0.00064671
-0.1521
-0.15214
-0.0036242
-0.12955
-0.0059602
-0.1367
-0.0059183
-0.14427
-0.0052032
-0.14793
-0.0042977
-0.1505
-0.0033211
-0.15189
-0.0023947
-0.15252
-0.0015448
-0.1528
-0.00075788
-0.15289
-0.15289
-0.0095749
-0.11997
-0.011155
-0.1351
-0.0093681
-0.14604
-0.0072018
-0.15008
-0.0054251
-0.15227
-0.0039566
-0.15333
-0.0027431
-0.15372
-0.0017227
-0.1538
-0.00082938
-0.15377
-0.15371
0.020732
-0.14068
0.024804
-0.13914
0.025629
-0.14684
0.024347
-0.14877
0.021513
-0.14941
0.017855
-0.14966
0.013713
-0.14956
0.0092772
-0.14935
0.0046752
-0.14914
-0.14902
0.012316
-0.15298
0.017315
-0.14411
0.018779
-0.14828
0.018234
-0.14821
0.01636
-0.14751
0.013696
-0.14697
0.010568
-0.14642
0.0071705
-0.14593
0.0036212
-0.14558
-0.14539
0.0071859
-0.16015
0.011559
-0.14844
0.012887
-0.14958
0.012709
-0.148
0.011538
-0.14632
0.0097332
-0.14514
0.0075454
-0.1442
0.0051347
-0.1435
0.0025997
-0.14302
-0.14278
0.0036798
-0.16381
0.006879
-0.15161
0.0077388
-0.15041
0.0076911
-0.14793
0.0070412
-0.14565
0.0059732
-0.14405
0.0046457
-0.14286
0.0031681
-0.142
0.0016086
-0.14144
-0.14116
0.00091117
-0.1647
0.0027398
-0.15342
0.0030643
-0.15071
0.0030298
-0.14787
0.0027882
-0.14539
0.002371
-0.14361
0.0018448
-0.14231
0.0012579
-0.14139
0.00064062
-0.14081
-0.14051
-0.0015768
-0.16311
-0.0012328
-0.15374
-0.0014035
-0.15052
-0.0014508
-0.14781
-0.0013363
-0.14548
-0.0011509
-0.14378
-0.00090995
-0.14253
-0.00062763
-0.14166
-0.00031697
-0.1411
-0.14082
-0.0041196
-0.15898
-0.0052958
-0.15254
-0.0059316
-0.14987
-0.0059737
-0.14775
-0.0055021
-0.14594
-0.0047075
-0.14456
-0.0036916
-0.14353
-0.002531
-0.1428
-0.0012822
-0.14233
-0.1421
-0.006869
-0.1521
-0.0096703
-0.14973
-0.010849
-0.14868
-0.010841
-0.14774
-0.0099341
-0.14683
-0.0084469
-0.14603
-0.0065892
-0.14537
-0.0045007
-0.14487
-0.0022773
-0.14454
-0.14437
-0.010505
-0.14159
-0.015318
-0.1449
-0.016901
-0.14709
-0.016507
-0.14813
-0.014874
-0.14845
-0.012497
-0.1484
-0.0096695
-0.14819
-0.00657
-0.14796
-0.003316
-0.14778
-0.14768
-0.019281
-0.1223
-0.024589
-0.13959
-0.025002
-0.14666
-0.023282
-0.14984
-0.020423
-0.1513
-0.016889
-0.15192
-0.012941
-0.15213
-0.0087408
-0.15215
-0.004398
-0.15211
-0.15207
0.011296
-0.13359
0.011822
-0.14011
0.01019
-0.14503
0.008201
-0.14785
0.0063408
-0.14944
0.0047238
-0.1503
0.0033367
-0.15074
0.0021272
-0.15093
0.0010353
-0.15101
-0.15103
0.0055674
-0.13915
0.0074045
-0.14194
0.0072106
-0.14483
0.0062911
-0.14692
0.005152
-0.14829
0.0039985
-0.14914
0.0029063
-0.14964
0.0018886
-0.14991
0.00092967
-0.15005
-0.1501
0.0030648
-0.14221
0.0046539
-0.14353
0.0050055
-0.14518
0.0046797
-0.14659
0.0040296
-0.14764
0.0032449
-0.14835
0.0024215
-0.14881
0.0016017
-0.14909
0.00079673
-0.14924
-0.1493
0.0018218
-0.14404
0.0029939
-0.1447
0.0034584
-0.14564
0.0034172
-0.14655
0.0030691
-0.14729
0.0025513
-0.14783
0.0019485
-0.14821
0.0013094
-0.14845
0.00065737
-0.14858
-0.14865
0.001142
-0.14518
0.0019692
-0.14553
0.0023905
-0.14606
0.0024644
-0.14663
0.0022898
-0.14712
0.0019546
-0.1475
0.0015226
-0.14777
0.0010371
-0.14796
0.00052461
-0.14807
-0.14812
0.00073965
-0.14592
0.0013136
-0.1461
0.0016499
-0.1464
0.0017555
-0.14673
0.0016749
-0.14704
0.0014605
-0.14728
0.0011566
-0.14747
0.00079661
-0.1476
0.00040553
-0.14768
-0.14772
0.00048465
-0.1464
0.00087696
-0.1465
0.0011272
-0.14665
0.001227
-0.14683
0.0011945
-0.14701
0.0010589
-0.14715
0.00084935
-0.14726
0.00059042
-0.14734
0.00030212
-0.14739
-0.14741
0.00031275
-0.14672
0.00057253
-0.14676
0.00074722
-0.14683
0.00082652
-0.14692
0.00081665
-0.147
0.00073288
-0.14707
0.00059353
-0.14712
0.00041537
-0.14716
0.00021324
-0.14719
-0.1472
0.00018883
-0.14691
0.00034797
-0.14692
0.00045865
-0.14694
0.00051253
-0.14697
0.00051134
-0.147
0.00046281
-0.14702
0.00037739
-0.14704
0.00026534
-0.14705
0.0001365
-0.14706
-0.14707
9.0838e-05
0.00016839
0.00022299
0.00025028
0.00025079
0.00022788
0.00018645
0.00013142
6.7796e-05
)
;

boundaryField
{
    bump
    {
        type             calculated;
        value            uniform 0;
    }
    outlet
    {
        type             calculated;
        value            nonuniform List<scalar>
10
(
0.14905
0.14907
0.14907
0.14903
0.14888
0.14843
0.14749
0.14574
0.14301
0.14077
)
;
    }
    inlet
    {
        type             calculated;
        value            nonuniform List<scalar>
10
(
-0.147
-0.147
-0.147
-0.147
-0.147
-0.147
-0.147
-0.147
-0.147
-0.147
)
;
    }
    side1
    {
        type             calculated;
        value            uniform 0;
    }
    side2
    {
        type             calculated;
        value            uniform 0;
    }
    symmetry
    {
        type             calculated;
        value            uniform 0;
    }
    top
    {
        type             calculated;
        value            uniform 0;
    }
}

// ************************************************************************* //
