/*--------------------------------*- C++ -*----------------------------------*\\
| =========                 |                                                 |
| \\      /  F ield         | OpenFOAM: The Open Source CFD Toolbox           |
|  \\    /   O peration     | Version:  v1706                                 |
|   \\  /    A nd           | Web:      www.OpenFOAM.com                      |
|    \\/     M anipulation  |                                                 |
\\*---------------------------------------------------------------------------*/
FoamFile
{
    version     2.0;
    format      ascii;
    class       volScalarField;
    location    "0.65";
    object      p;
}
// * * * * * * * * * * * * * * * * * * * * * * * * * * * * * * * * * * * * * //

dimensions      [1 -1 -2 0 0 0 0]


internalField   nonuniform List<scalar>
300
(
26.6614
15.928
8.8709
-2.7419
-7.3097
-8.1502
-10.2805
-11.6575
-12.1326
-12.2211
47.0069
28.9548
14.8214
-5.0551
-15.5793
-18.6584
-22.6328
-25.6096
-27.0459
-27.5756
55.0948
32.8576
15.3243
-10.0754
-26.3293
-31.4397
-36.351
-40.2718
-42.3061
-43.0878
46.1735
23.4842
8.7316
-17.3827
-37.9841
-44.9774
-50.5216
-55.0795
-57.6398
-58.7294
21.3652
1.71
-3.2103
-24.2678
-47.9858
-57.5869
-64.2782
-69.7705
-73.0424
-74.5021
-0.85505
-19.3661
-12.651
-25.8693
-53.5448
-68.026
-77.3875
-84.6421
-88.9706
-90.9252
27.4525
-9.8129
-7.9497
-19.7225
-55.2481
-77.9416
-91.5343
-100.8868
-106.342
-108.8516
173.3289
62.153
12.4887
-14.6062
-61.4113
-93.2035
-110.5343
-120.9211
-126.6166
-129.1882
425.1045
170.5044
15.8641
-36.9851
-87.8671
-121.8049
-138.303
-146.7165
-150.7539
-152.4763
470.0278
161.7147
-63.8433
-116.2228
-146.7132
-167.8691
-175.7354
-177.8753
-178.0227
-177.9974
-238.9183
-121.4366
-247.4551
-244.9224
-229.5939
-225.0743
-218.1257
-211.0207
-205.8646
-203.4987
-705.1805
-369.2839
-399.4512
-353.64
-303.7884
-276.5834
-255.8549
-240.4252
-230.4161
-225.7325
-1015.034
-576.4133
-518.5296
-440.4112
-364.7086
-318.4534
-285.5319
-262.7332
-248.4933
-241.7997
-1196.2334
-724.0216
-590.632
-492.845
-401.7979
-343.0276
-301.8852
-274.0655
-256.9626
-248.9198
-1263.5155
-810.5023
-615.6374
-506.454
-409.8624
-345.7249
-301.3391
-271.7253
-253.7133
-245.2486
-1206.5411
-825.2058
-591.814
-478.5495
-386.4209
-324.7719
-282.7377
-254.9809
-238.2483
-230.3991
-973.7761
-731.1128
-505.244
-404.7562
-330.6809
-281.0662
-247.4817
-225.3103
-211.9556
-205.6594
-491.0741
-474.8816
-338.2164
-284.2932
-246.2
-219.0634
-199.6077
-186.1481
-177.7986
-173.7294
217.5373
-68.7996
-110.1319
-136.7347
-146.7661
-147.9296
-145.4634
-142.2058
-139.6126
-138.0758
765.4915
279.2294
82.7401
-9.5057
-56.4651
-80.5221
-92.5997
-98.4674
-101.1925
-102.0891
468.7642
282.9104
142.0456
56.6406
4.1454
-28.1184
-47.661
-59.2184
-65.6772
-68.4812
322.9988
242.3655
154.6562
87.7532
40.5615
8.2802
-13.1955
-26.9568
-35.13
-38.8766
239.3654
199.7137
147.1023
99.3543
61.3329
32.8729
12.5154
-1.3009
-9.8475
-13.8847
188.341
166.84
134.566
101.4543
72.3871
48.9194
31.0992
18.4357
10.3471
6.4445
155.7436
143.0942
122.5523
99.5784
77.8229
59.1359
44.2257
33.2155
25.9979
22.461
134.288
126.3105
112.6822
96.4766
80.2143
65.534
53.3313
44.0288
37.7984
34.706
120.0061
114.6466
105.1755
93.409
81.0716
69.482
59.5245
51.7348
46.4217
43.757
110.6981
106.841
99.8687
90.931
81.2444
71.8578
63.5782
56.9646
52.3892
50.0774
105.233
102.1905
96.6111
89.3019
81.1962
73.1683
65.9499
60.0956
56.0033
53.9219
103.0171
100.3068
95.2798
88.6241
81.1609
73.6916
66.914
61.378
57.4836
55.4781
)
;

boundaryField
{
    bump
    {
        type             zeroGradient;
    }
    outlet
    {
        type             fixedValue;
        value            uniform 0;
    }
    inlet
    {
        type             zeroGradient;
    }
    side1
    {
        type             empty;
    }
    side2
    {
        type             empty;
    }
    symmetry
    {
        type             symmetry;
    }
    top
    {
        type             symmetry;
    }
}

// ************************************************************************* //
