/*--------------------------------*- C++ -*----------------------------------*\\
| =========                 |                                                 |
| \\      /  F ield         | OpenFOAM: The Open Source CFD Toolbox           |
|  \\    /   O peration     | Version:  v1706                                 |
|   \\  /    A nd           | Web:      www.OpenFOAM.com                      |
|    \\/     M anipulation  |                                                 |
\\*---------------------------------------------------------------------------*/
FoamFile
{
    version     2.0;
    format      ascii;
    class       volVectorField;
    location    "0.65";
    object      U;
}
// * * * * * * * * * * * * * * * * * * * * * * * * * * * * * * * * * * * * * //

dimensions      [0 1 -1 0 0 0 0]


internalField   nonuniform List<vector>
300
(
(57.4586 -0.30667 0.014203)
(58.3731 -0.189 0.010028)
(59.4844 -0.29908 0.0058074)
(60.1999 -0.33099 0.003591)
(60.5834 -0.26881 0.0022353)
(60.7667 -0.37866 0.0013787)
(60.8297 -0.32342 0.00083489)
(60.8447 -0.24346 0.00060416)
(60.8435 -0.15143 0.0020621)
(60.8382 -0.052355 0.0020795)
(57.0215 -0.32104 0.014553)
(58.097 -0.20405 0.010271)
(59.3276 -0.29816 0.0060134)
(60.2016 -0.38122 0.0037381)
(60.6476 -0.27555 0.0023482)
(60.8459 -0.38202 0.0014712)
(60.9524 -0.32979 0.00091568)
(60.9933 -0.24527 0.00067939)
(60.9999 -0.15217 0.0020935)
(60.9944 -0.052563 0.0021175)
(56.8734 -0.38295 0.014654)
(57.9887 -0.29379 0.01029)
(59.2547 -0.36289 0.0060224)
(60.1848 -0.49461 0.0037073)
(60.6876 -0.3269 0.0022943)
(60.9097 -0.41789 0.0014037)
(61.0385 -0.36697 0.00084143)
(61.098 -0.26953 0.00060286)
(61.1142 -0.16593 0.0019729)
(61.1115 -0.05725 0.0020051)
(56.7849 -0.48238 0.014734)
(57.9278 -0.43957 0.010309)
(59.2076 -0.48017 0.0060583)
(60.177 -0.67094 0.0037207)
(60.7419 -0.42853 0.0022948)
(60.9912 -0.48296 0.0013973)
(61.1379 -0.4287 0.00083257)
(61.213 -0.31269 0.00059438)
(61.2383 -0.18992 0.0019206)
(61.2389 -0.064958 0.0019621)
(56.752 -0.61497 0.014728)
(57.9242 -0.62289 0.010266)
(59.1911 -0.62458 0.0060533)
(60.1728 -0.89901 0.0037082)
(60.8006 -0.58229 0.0022789)
(61.0847 -0.57832 0.0013802)
(61.2512 -0.51254 0.00081697)
(61.3412 -0.37296 0.00058108)
(61.3766 -0.22494 0.0018635)
(61.3819 -0.07664 0.0019153)
(56.6925 -0.78294 0.01465)
(57.9298 -0.83103 0.010172)
(59.1772 -0.76445 0.0060148)
(60.1493 -1.1628 0.003675)
(60.8493 -0.79355 0.0022498)
(61.1856 -0.71109 0.0013549)
(61.3807 -0.62059 0.00079629)
(61.4907 -0.45095 0.00056373)
(61.5377 -0.27096 0.0018025)
(61.5477 -0.09198 0.001865)
(56.3041 -1.013 0.014517)
(57.7595 -1.0935 0.010043)
(59.0881 -0.8944 0.0059526)
(60.0801 -1.4634 0.0036273)
(60.8852 -1.0816 0.0022123)
(61.3023 -0.8984 0.0013246)
(61.5387 -0.76298 0.00077256)
(61.6725 -0.55097 0.00054328)
(61.7317 -0.32777 0.0017383)
(61.7467 -0.11031 0.0018115)
(54.9219 -1.4205 0.014348)
(57.0747 -1.6106 0.0098941)
(58.8586 -1.1328 0.0058783)
(60.0014 -1.8574 0.0035731)
(60.9575 -1.4861 0.0021714)
(61.4795 -1.1627 0.0012927)
(61.7583 -0.94464 0.00074807)
(61.9063 -0.67133 0.00052085)
(61.9705 -0.39483 0.0016719)
(61.9878 -0.13195 0.0017553)
(52.0441 -2.3516 0.014162)
(55.7822 -2.9936 0.0097518)
(58.6702 -1.8337 0.0058086)
(60.1193 -2.4594 0.0035222)
(61.2028 -2.0357 0.0021334)
(61.7937 -1.5048 0.0012632)
(62.0807 -1.1506 0.00072525)
(62.2153 -0.79585 0.0004977)
(62.2656 -0.4615 0.0016041)
(62.2752 -0.15303 0.0016968)
(49.7421 -4.3415 0.014011)
(55.0086 -6.1514 0.0096754)
(59.1666 -3.3991 0.0057732)
(60.7905 -3.2821 0.0034894)
(61.7857 -2.6428 0.0021064)
(62.307 -1.853 0.0012413)
(62.5249 -1.3332 0.00070761)
(62.601 -0.89312 0.00047624)
(62.6119 -0.50835 0.0015364)
(62.6028 -0.1668 0.0016365)
(55.1277 -6.8267 0.013903)
(56.9344 -10.4263 0.0096293)
(60.8992 -5.4189 0.0057323)
(62.1483 -3.9646 0.0034442)
(62.7335 -3.048 0.0020695)
(63.0081 -2.0651 0.0012148)
(63.0668 -1.4169 0.00068937)
(63.0366 -0.92278 0.0004545)
(62.9847 -0.51746 0.0014678)
(62.9474 -0.16887 0.0015757)
(63.8129 -5.9955 0.013263)
(61.1376 -11.0175 0.0084675)
(63.6483 -5.4634 0.0047344)
(63.9642 -3.7056 0.0028184)
(63.8999 -2.8296 0.0016931)
(63.7992 -1.867 0.00099817)
(63.6367 -1.2588 0.0005754)
(63.473 -0.80732 0.00040781)
(63.3471 -0.44947 0.001451)
(63.2779 -0.14442 0.0015111)
(69.496 -3.7584 0.012009)
(64.7204 -9.2504 0.0072037)
(65.8693 -4.6846 0.0038366)
(65.4455 -2.898 0.0022934)
(64.8783 -2.2551 0.0013808)
(64.4661 -1.456 0.00081951)
(64.1142 -0.96707 0.00048259)
(63.8375 -0.6095 0.00036993)
(63.648 -0.33587 0.0014158)
(63.5495 -0.1054 0.0014352)
(73.0311 -0.93606 0.010501)
(67.5164 -6.0177 0.0058826)
(67.466 -3.3137 0.0030769)
(66.5209 -1.6875 0.001883)
(65.5975 -1.3884 0.0011562)
(64.9481 -0.85978 0.00070335)
(64.449 -0.55562 0.00042752)
(64.0848 -0.3391 0.00035134)
(63.8464 -0.183 0.0013682)
(63.726 -0.054678 0.001354)
(74.7621 2.0363 0.0096909)
(69.2931 -1.972 0.0050624)
(68.3164 -1.4999 0.0026916)
(67.075 -0.24799 0.00168)
(65.9611 -0.32758 0.0010487)
(65.1726 -0.13751 0.00065566)
(64.5884 -0.060879 0.00041087)
(64.175 -0.017988 0.00035166)
(63.9099 -0.0030157 0.0013097)
(63.7782 0.0035526 0.0012699)
(74.8028 4.849 0.0095565)
(69.9331 2.3477 0.0048954)
(68.3857 0.65192 0.0026588)
(67.0492 1.2615 0.0016754)
(65.914 0.81534 0.0010513)
(65.0977 0.63746 0.00066509)
(64.5022 0.46671 0.00042172)
(64.0861 0.32144 0.00036262)
(63.8218 0.18634 0.0012384)
(63.691 0.06429 0.0011842)
(73.017 7.2321 0.0088845)
(69.2167 6.3825 0.0046652)
(67.6143 2.9883 0.0024875)
(66.408 2.7074 0.0015539)
(65.4305 1.9075 0.00097634)
(64.7127 1.3772 0.00061775)
(64.1879 0.96673 0.00039176)
(63.8194 0.64131 0.00034133)
(63.5847 0.36444 0.0011416)
(63.468 0.12176 0.0010927)
(68.8455 8.7857 0.0064572)
(66.8299 9.5351 0.0035768)
(65.8874 5.1448 0.001791)
(65.1516 3.9249 0.0010959)
(64.5372 2.7892 0.00070104)
(64.0517 1.9766 0.00044902)
(63.677 1.3712 0.00028611)
(63.4027 0.90084 0.00026435)
(63.2232 0.50962 0.0010224)
(63.1322 0.16902 0.00099503)
(61.7875 8.9016 0.0030548)
(62.6941 10.8445 0.0019379)
(63.2979 6.4881 0.00088999)
(63.4406 4.6163 0.00055047)
(63.3709 3.288 0.00038419)
(63.2149 2.3337 0.00026131)
(63.0418 1.623 0.00016992)
(62.8901 1.0683 0.00017286)
(62.7807 0.6058 0.00090368)
(62.7217 0.2007 0.00089974)
(53.8609 6.8389 0.0010175)
(58.3052 9.1424 0.00089855)
(60.7 6.2672 0.00031667)
(61.756 4.5159 0.00018774)
(62.2027 3.3066 0.00014688)
(62.3586 2.4028 0.00010817)
(62.3791 1.6999 7.2434e-05)
(62.3471 1.1318 8.3715e-05)
(62.3071 0.64691 0.00079488)
(62.2801 0.21427 0.00081088)
(52.4938 2.6506 0.00069697)
(57.0102 4.9235 0.00073367)
(59.4291 4.6639 0.00014572)
(60.6809 3.8004 3.904e-05)
(61.3282 2.9699 2.3517e-05)
(61.6469 2.2485 1.7076e-05)
(61.7879 1.6336 1.1164e-05)
(61.8388 1.1061 6.8221e-06)
(61.8501 0.63851 0.00070139)
(61.8476 0.21021 0.00073236)
(55.861 1.2541 0.00065652)
(57.6425 2.7715 0.00065386)
(59.1377 3.0854 6.9543e-05)
(60.1161 2.8085 5.4113e-06)
(60.7211 2.356 4.4122e-07)
(61.0774 1.873 1.2301e-07)
(61.2747 1.4084 8.5345e-08)
(61.3766 0.9762 7.2051e-08)
(61.4245 0.5721 0.00063467)
(61.4417 0.1895 0.0006598)
(57.5189 0.67291 0.00058476)
(58.3045 1.6431 0.00058343)
(59.1876 2.0344 3.9645e-05)
(59.8829 2.0191 2.208e-06)
(60.3703 1.8011 1.8375e-07)
(60.6898 1.4962 6.8232e-08)
(60.8871 1.1614 4.2107e-08)
(61.0018 0.82278 2.9944e-08)
(61.0631 0.48902 0.00056947)
(61.0885 0.16287 0.00058676)
(58.4713 0.39353 0.00051233)
(58.852 1.0203 0.00051164)
(59.3591 1.3558 2.2184e-05)
(59.8188 1.4342 8.9736e-07)
(60.176 1.3446 9.2518e-08)
(60.4305 1.1597 3.907e-08)
(60.6 0.92552 1.5967e-08)
(60.7058 0.6686 3.6957e-09)
(60.766 0.40239 0.00050228)
(60.7925 0.13467 0.00051357)
(59.0546 0.24407 0.00043955)
(59.2505 0.65633 0.00043919)
(59.5405 0.91408 1.2105e-05)
(59.8309 1.0125 3.7852e-07)
(60.0754 0.98678 5.9516e-08)
(60.2614 0.87756 2.387e-08)
(60.3926 0.71694 1.391e-09)
(60.4787 0.52667 -1.1564e-08)
(60.5298 0.3204 0.00043335)
(60.5529 0.10768 0.0004403)
(59.4277 0.1569 0.00036657)
(59.5313 0.43159 0.00036638)
(59.6949 0.62007 6.3436e-06)
(59.8705 0.7098 1.8007e-07)
(60.0276 0.71237 4.751e-08)
(60.1532 0.64907 1.6573e-08)
(60.2457 0.54046 -5.9851e-09)
(60.3087 0.40257 -1.9855e-08)
(60.3472 0.24716 0.000363)
(60.3649 0.08338 0.00036697)
(59.6723 0.10222 0.00029345)
(59.7262 0.28529 0.00029335)
(59.8148 0.41846 3.1171e-06)
(59.9144 0.49019 1.0821e-07)
(60.0074 0.50277 4.34e-08)
(60.0846 0.46671 1.3485e-08)
(60.1434 0.39443 -9.3729e-09)
(60.1845 0.29706 -2.4203e-08)
(60.2102 0.18377 0.00029155)
(60.2221 0.062207 0.00029361)
(59.8328 0.065608 0.00022023)
(59.8587 0.18483 0.00022018)
(59.9021 0.27485 1.3874e-06)
(59.9524 0.32711 8.4543e-08)
(60.0008 0.34077 4.218e-08)
(60.042 0.32071 1.2306e-08)
(60.074 0.27409 -1.0919e-08)
(60.0969 0.20817 -2.6652e-08)
(60.1114 0.12954 0.0002193)
(60.118 0.04398 0.00022023)
(59.933 0.039299 0.00014694)
(59.943 0.11142 0.00014691)
(59.96 0.16719 5.3883e-07)
(59.9801 0.20104 7.7918e-08)
(59.9996 0.21159 4.1825e-08)
(60.0166 0.20102 1.1747e-08)
(60.03 0.17317 -1.1848e-08)
(60.0396 0.1323 -2.8368e-08)
(60.0458 0.082732 0.00014651)
(60.0486 0.02818 0.00014683)
(59.985 0.018535 5.7772e-08)
(59.9873 0.052896 4.5689e-08)
(59.991 0.079819 -7.3304e-05)
(59.9955 0.096544 -7.3408e-05)
(59.9999 0.10221 -7.343e-05)
(60.0037 0.097627 -7.3449e-05)
(60.0068 0.084487 -7.3463e-05)
(60.009 0.064786 -7.3474e-05)
(60.0104 0.040626 -9.8941e-08)
(60.0111 0.01382 -3.6266e-08)
)
;

boundaryField
{
    bump
    {
        type             noSlip;
    }
    outlet
    {
        type             zeroGradient;
    }
    inlet
    {
        type             fixedValue;
        value            uniform (60 0 0);
    }
    side1
    {
        type             empty;
    }
    side2
    {
        type             empty;
    }
    symmetry
    {
        type             symmetry;
    }
    top
    {
        type             symmetry;
    }
}

// ************************************************************************* //
