/*--------------------------------*- C++ -*----------------------------------*\\
| =========                 |                                                 |
| \\      /  F ield         | OpenFOAM: The Open Source CFD Toolbox           |
|  \\    /   O peration     | Version:  v1706                                 |
|   \\  /    A nd           | Web:      www.OpenFOAM.com                      |
|    \\/     M anipulation  |                                                 |
\\*---------------------------------------------------------------------------*/
FoamFile
{
    version     2.0;
    format      ascii;
    class       surfaceScalarField;
    location    "0.85";
    object      mdot_f;
}
// * * * * * * * * * * * * * * * * * * * * * * * * * * * * * * * * * * * * * //

dimensions      [1 0 -1 0 0 0 0]


internalField   nonuniform List<scalar>
560
(
-5.9477e-05
-0.13982
-4.0536e-05
-0.1423
-0.00023591
-0.1454
-0.00044043
-0.14751
-0.00054664
-0.14852
-0.00057878
-0.14891
-0.00049362
-0.14909
-0.00036202
-0.14911
-0.0001949
-0.14906
-0.14901
-0.0001763
-0.13965
-0.00028218
-0.1422
-0.00043925
-0.14525
-0.00058155
-0.14737
-0.00063422
-0.14847
-0.00062512
-0.14892
-0.00053543
-0.14918
-0.00038702
-0.14925
-0.00020308
-0.14925
-0.14921
-0.00031394
-0.13934
-0.00051284
-0.14199
-0.00068582
-0.14507
-0.00080848
-0.14726
-0.00081512
-0.14846
-0.00075672
-0.14898
-0.00063515
-0.1493
-0.00045182
-0.14943
-0.00023293
-0.14946
-0.14945
-0.00050022
-0.13884
-0.00080613
-0.14169
-0.0010116
-0.14487
-0.0011237
-0.14715
-0.0010865
-0.1485
-0.00096769
-0.1491
-0.00078867
-0.14949
-0.00055486
-0.14967
-0.00028546
-0.14973
-0.14974
-0.00078982
-0.13805
-0.0012223
-0.14128
-0.001444
-0.14465
-0.0015356
-0.14706
-0.0014455
-0.14861
-0.0012509
-0.1493
-0.00099592
-0.14974
-0.00069279
-0.14998
-0.00035444
-0.15008
-0.15009
-0.0012203
-0.13683
-0.0017829
-0.14073
-0.0019858
-0.14446
-0.0020469
-0.14701
-0.0018939
-0.14877
-0.0016123
-0.14959
-0.001265
-0.1501
-0.00086808
-0.15038
-0.00044052
-0.15051
-0.15054
-0.0017342
-0.1351
-0.0024782
-0.14
-0.0026703
-0.14429
-0.0027028
-0.14699
-0.0024762
-0.14901
-0.0020762
-0.15001
-0.0016008
-0.15059
-0.0010851
-0.15091
-0.00054767
-0.15105
-0.15109
-0.0022515
-0.13286
-0.0035095
-0.13877
-0.0037658
-0.14405
-0.0036905
-0.14708
-0.0032894
-0.14942
-0.002677
-0.15063
-0.0020074
-0.15127
-0.0013347
-0.1516
-0.00066621
-0.15173
-0.15177
-0.0035636
-0.12931
-0.0059177
-0.13644
-0.0059195
-0.14406
-0.0052629
-0.14776
-0.0043731
-0.15033
-0.0033866
-0.15163
-0.0024471
-0.15222
-0.0015842
-0.15247
-0.00077851
-0.15255
-0.15255
-0.0095419
-0.11978
-0.011143
-0.13486
-0.0093738
-0.14585
-0.0072604
-0.14989
-0.005509
-0.15209
-0.0040349
-0.15312
-0.0028049
-0.15346
-0.0017698
-0.15352
-0.00085756
-0.15347
-0.15341
0.020688
-0.14049
0.024691
-0.13888
0.025486
-0.14666
0.024177
-0.14859
0.02135
-0.14928
0.01772
-0.1495
0.013608
-0.14936
0.0091974
-0.14912
0.0046279
-0.14892
-0.14879
0.012345
-0.15284
0.017322
-0.14388
0.018768
-0.14812
0.018175
-0.14801
0.016265
-0.14738
0.013597
-0.14685
0.010486
-0.14626
0.0071083
-0.14576
0.0035838
-0.1454
-0.14521
0.0072305
-0.16008
0.011613
-0.14828
0.01294
-0.14946
0.012729
-0.14781
0.011512
-0.14618
0.0096834
-0.14503
0.0074939
-0.14408
0.0050919
-0.14337
0.0025706
-0.14289
-0.14265
0.0037031
-0.1638
0.0069189
-0.1515
0.0077842
-0.15034
0.0077338
-0.14777
0.0070531
-0.1455
0.0059581
-0.14394
0.0046214
-0.14275
0.0031438
-0.1419
0.0015874
-0.14134
-0.14106
0.00090183
-0.1647
0.0027328
-0.15334
0.0030576
-0.15067
0.0030454
-0.14777
0.0028011
-0.14527
0.0023687
-0.14352
0.0018343
-0.14223
0.0012446
-0.14131
0.00062627
-0.14073
-0.14044
-0.0015995
-0.16311
-0.0012707
-0.15368
-0.0014553
-0.15049
-0.0014773
-0.14775
-0.0013448
-0.14541
-0.0011572
-0.14371
-0.00091728
-0.14247
-0.00063641
-0.1416
-0.00032741
-0.14105
-0.14077
-0.0041358
-0.15898
-0.005323
-0.15249
-0.0059781
-0.14984
-0.0060114
-0.14772
-0.0055235
-0.1459
-0.0047206
-0.14452
-0.0037008
-0.1435
-0.0025393
-0.14277
-0.0012917
-0.1423
-0.14207
-0.0068776
-0.1521
-0.0096728
-0.1497
-0.010865
-0.14865
-0.010865
-0.14772
-0.0099538
-0.14681
-0.0084619
-0.14602
-0.0066004
-0.14536
-0.0045103
-0.14486
-0.0022871
-0.14453
-0.14435
-0.010527
-0.14158
-0.015328
-0.1449
-0.016909
-0.14707
-0.016522
-0.14811
-0.014891
-0.14845
-0.012512
-0.1484
-0.0096822
-0.14819
-0.0065808
-0.14797
-0.0033258
-0.14778
-0.14768
-0.019332
-0.12225
-0.02464
-0.1396
-0.025034
-0.14668
-0.023304
-0.14984
-0.020441
-0.15131
-0.016905
-0.15193
-0.012955
-0.15215
-0.0087527
-0.15217
-0.0044081
-0.15213
-0.15209
0.011318
-0.13356
0.011833
-0.14011
0.010198
-0.14504
0.00821
-0.14786
0.0063502
-0.14945
0.0047324
-0.15032
0.0033422
-0.15076
0.0021288
-0.15096
0.001033
-0.15104
-0.15106
0.005582
-0.13915
0.0074174
-0.14195
0.0072216
-0.14484
0.0063029
-0.14694
0.0051636
-0.14831
0.0040095
-0.14916
0.0029143
-0.14966
0.0018925
-0.14993
0.00092978
-0.15007
-0.15013
0.0030739
-0.14222
0.0046655
-0.14354
0.0050174
-0.14519
0.0046926
-0.14661
0.0040423
-0.14766
0.0032565
-0.14837
0.0024308
-0.14883
0.0016072
-0.14911
0.00079802
-0.14926
-0.14933
0.001828
-0.14404
0.0030035
-0.14471
0.0034694
-0.14566
0.0034299
-0.14657
0.0030816
-0.14731
0.0025624
-0.14785
0.0019581
-0.14823
0.0013155
-0.14847
0.00065931
-0.1486
-0.14867
0.0011457
-0.14519
0.0019771
-0.14554
0.0024001
-0.14608
0.0024754
-0.14664
0.0023012
-0.14713
0.0019647
-0.14752
0.0015312
-0.14779
0.0010431
-0.14798
0.00052725
-0.14809
-0.14814
0.00074138
-0.14593
0.0013197
-0.14611
0.0016578
-0.14642
0.0017642
-0.14675
0.0016844
-0.14705
0.0014691
-0.1473
0.0011634
-0.14749
0.00080183
-0.14761
0.00040821
-0.14769
-0.14773
0.00048534
-0.14641
0.00088102
-0.14651
0.001133
-0.14666
0.0012334
-0.14685
0.0012014
-0.14702
0.0010655
-0.14716
0.00085474
-0.14727
0.00059441
-0.14735
0.00030434
-0.1474
-0.14742
0.00031273
-0.14672
0.00057479
-0.14677
0.00075096
-0.14684
0.00083057
-0.14692
0.00082066
-0.147
0.00073685
-0.14708
0.00059687
-0.14713
0.00041802
-0.14717
0.00021506
-0.1472
-0.14721
0.00018837
-0.14691
0.0003489
-0.14692
0.0004602
-0.14695
0.0005142
-0.14697
0.00051283
-0.147
0.00046408
-0.14702
0.00037827
-0.14704
0.0002662
-0.14706
0.00013743
-0.14706
-0.14707
9.0578e-05
0.00016798
0.00022239
0.00024949
0.00024968
0.00022658
0.00018504
0.00013029
6.7046e-05
)
;

boundaryField
{
    bump
    {
        type             calculated;
        value            uniform 0;
    }
    outlet
    {
        type             calculated;
        value            nonuniform List<scalar>
10
(
0.1488
0.14887
0.14895
0.14899
0.14893
0.1486
0.14769
0.14566
0.14248
0.14018
)
;
    }
    inlet
    {
        type             calculated;
        value            nonuniform List<scalar>
10
(
-0.147
-0.147
-0.147
-0.147
-0.147
-0.147
-0.147
-0.147
-0.147
-0.147
)
;
    }
    side1
    {
        type             calculated;
        value            uniform 0;
    }
    side2
    {
        type             calculated;
        value            uniform 0;
    }
    symmetry
    {
        type             calculated;
        value            uniform 0;
    }
    top
    {
        type             calculated;
        value            uniform 0;
    }
}

// ************************************************************************* //
