/*--------------------------------*- C++ -*----------------------------------*\\
| =========                 |                                                 |
| \\      /  F ield         | OpenFOAM: The Open Source CFD Toolbox           |
|  \\    /   O peration     | Version:  v1706                                 |
|   \\  /    A nd           | Web:      www.OpenFOAM.com                      |
|    \\/     M anipulation  |                                                 |
\\*---------------------------------------------------------------------------*/
FoamFile
{
    version     2.0;
    format      ascii;
    class       volScalarField;
    location    "0.85";
    object      p;
}
// * * * * * * * * * * * * * * * * * * * * * * * * * * * * * * * * * * * * * //

dimensions      [1 -1 -2 0 0 0 0]


internalField   nonuniform List<scalar>
300
(
13.0013
7.3948
9.071
6.6897
4.8592
3.3434
-0.2835
-2.1627
-3.2021
-3.8053
33.0124
21.6079
20.147
14.1578
8.963
5.3646
-1.1136
-5.3151
-7.7676
-9.1198
59.9549
40.5864
32.3198
20.0823
9.95
4.2571
-4.3088
-10.5256
-14.2159
-16.168
85.885
57.6897
42.1838
23.169
7.108
-0.69584
-10.6502
-18.4876
-23.2111
-25.6248
101.3766
66.1295
47.1194
23.741
1.4256
-8.9918
-20.1164
-29.3595
-35.0284
-37.8619
108.1719
67.5938
49.5931
24.9511
-4.7202
-19.6871
-32.6431
-43.372
-49.9933
-53.2286
141.0678
83.6066
58.6932
30.1243
-10.436
-33.2288
-49.135
-61.3469
-68.7088
-72.1929
270.3933
147.723
77.7396
32.8605
-21.694
-53.6985
-72.1616
-84.6952
-91.8787
-95.1564
501.8265
242.8978
76.5038
8.0092
-52.7324
-87.8604
-104.7512
-114.5766
-119.7451
-121.993
528.0299
218.3778
-11.5591
-74.5849
-115.4664
-139.1594
-147.2325
-150.3095
-151.2955
-151.6071
-211.2254
-86.2017
-207.6473
-208.7541
-202.7805
-201.6386
-194.8625
-188.3666
-183.8115
-181.6381
-706.1153
-358.6237
-377.433
-326.8378
-282.5739
-258.631
-238.2356
-223.1431
-213.4392
-208.7866
-1034.027
-585.6061
-515.0309
-425.8756
-350.6117
-306.2861
-273.6404
-251.0174
-236.8445
-230.0115
-1215.9599
-740.3125
-599.5111
-490.0348
-395.7067
-337.1353
-295.853
-267.9685
-250.7191
-242.3939
-1269.92
-820.3593
-627.1828
-511.3309
-410.8577
-345.9005
-301.0054
-271.0641
-252.704
-243.8643
-1199.4569
-824.2219
-599.4723
-486.5376
-392.4173
-329.9631
-287.393
-259.2158
-242.0395
-233.7838
-968.0911
-727.6869
-509.9251
-413.6579
-339.8337
-290.0291
-256.173
-233.6787
-219.9122
-213.2349
-500.5027
-480.4656
-345.1613
-294.5509
-257.6894
-230.9096
-211.4944
-197.8845
-189.2219
-184.8347
198.4697
-84.1526
-122.4567
-149.7585
-160.7085
-162.3135
-159.9967
-156.6728
-153.8381
-152.045
749.6322
261.4216
66.0548
-25.7973
-72.9917
-97.2448
-109.3779
-115.1479
-117.6354
-118.2974
451.3663
264.3964
123.5994
38.4428
-14.1138
-46.4638
-66.0083
-77.4587
-83.6981
-86.3003
304.2442
223.1549
135.2618
68.4161
21.218
-11.0888
-32.5487
-46.2179
-54.2161
-57.8139
219.7887
179.9544
127.1888
79.416
41.3835
12.9134
-7.4222
-21.1682
-29.5884
-33.5211
168.3864
146.8091
114.4346
81.2824
52.1914
28.7118
10.9079
-1.7116
-9.7181
-13.556
135.7121
123.0419
102.4354
79.4186
57.635
38.9276
24.0165
13.0286
5.8535
2.342
114.3611
106.3905
92.7169
76.47
60.1773
45.4663
33.2473
23.9474
17.7279
14.6328
100.2626
94.9178
85.4164
73.6125
61.2408
49.6186
39.6338
31.8268
26.5031
23.8176
91.1333
87.2941
80.302
71.3316
61.6119
52.195
43.8853
37.2465
32.6471
30.3012
85.8022
82.7762
77.1801
69.8442
61.7081
53.6502
46.4031
40.524
36.4051
34.2885
83.6563
80.9386
75.8946
69.215
61.7228
54.2239
47.418
41.8574
37.9429
35.9295
)
;

boundaryField
{
    bump
    {
        type             zeroGradient;
    }
    outlet
    {
        type             fixedValue;
        value            uniform 0;
    }
    inlet
    {
        type             zeroGradient;
    }
    side1
    {
        type             empty;
    }
    side2
    {
        type             empty;
    }
    symmetry
    {
        type             symmetry;
    }
    top
    {
        type             symmetry;
    }
}

// ************************************************************************* //
