/*--------------------------------*- C++ -*----------------------------------*\\
| =========                 |                                                 |
| \\      /  F ield         | OpenFOAM: The Open Source CFD Toolbox           |
|  \\    /   O peration     | Version:  v1706                                 |
|   \\  /    A nd           | Web:      www.OpenFOAM.com                      |
|    \\/     M anipulation  |                                                 |
\\*---------------------------------------------------------------------------*/
FoamFile
{
    version     2.0;
    format      ascii;
    class       volVectorField;
    location    "0.85";
    object      U;
}
// * * * * * * * * * * * * * * * * * * * * * * * * * * * * * * * * * * * * * //

dimensions      [0 1 -1 0 0 0 0]


internalField   nonuniform List<vector>
300
(
(57.2177 -0.16497 0.014253)
(58.1568 0.094927 0.0098536)
(59.4538 0.048479 0.0055581)
(60.2822 -0.20375 0.0033985)
(60.6528 -0.14457 0.0020832)
(60.7859 -0.27474 0.0012538)
(60.8104 -0.20539 0.00074122)
(60.7954 -0.165 0.00056904)
(60.7631 -0.11397 0.0021915)
(60.7331 -0.041532 0.0022702)
(57.0547 -0.22232 0.014177)
(58.0695 0.024382 0.0097838)
(59.3087 -0.008787 0.005582)
(60.1507 -0.27605 0.0034443)
(60.5647 -0.17744 0.0021404)
(60.7345 -0.30374 0.0013168)
(60.8261 -0.23205 0.0008075)
(60.8465 -0.17871 0.0006358)
(60.8367 -0.1211 0.002202)
(60.8203 -0.043827 0.002285)
(56.8698 -0.30546 0.013943)
(57.9456 -0.072837 0.0095648)
(59.2121 -0.082625 0.0054587)
(60.0908 -0.38366 0.0033439)
(60.5503 -0.24699 0.0020519)
(60.7449 -0.3653 0.0012342)
(60.8667 -0.29021 0.00072826)
(60.9103 -0.21437 0.00055671)
(60.9153 -0.14118 0.0020648)
(60.9073 -0.050725 0.0021512)
(56.641 -0.42379 0.013781)
(57.8 -0.22315 0.0094237)
(59.118 -0.19877 0.005414)
(60.0468 -0.54075 0.0033215)
(60.5629 -0.35725 0.0020403)
(60.7832 -0.456 0.0012278)
(60.9292 -0.37548 0.00072436)
(60.9945 -0.27017 0.00055163)
(61.0133 -0.17378 0.002)
(61.0126 -0.062157 0.002089)
(56.419 -0.58823 0.013626)
(57.6771 -0.44346 0.0092942)
(59.0443 -0.36545 0.0053789)
(60.0194 -0.75643 0.0033064)
(60.6031 -0.51467 0.0020342)
(60.8534 -0.57346 0.0012254)
(61.0207 -0.4841 0.00072313)
(61.1077 -0.34449 0.00054736)
(61.1396 -0.21657 0.0019348)
(61.1447 -0.07673 0.0020254)
(56.2115 -0.80432 0.013487)
(57.5822 -0.73091 0.0091842)
(58.9839 -0.56543 0.0053578)
(59.9901 -1.0279 0.0033012)
(60.6564 -0.72694 0.0020348)
(60.9523 -0.72045 0.0012276)
(61.1445 -0.61642 0.00072487)
(61.2537 -0.43806 0.00054367)
(61.2994 -0.26956 0.0018694)
(61.311 -0.094338 0.0019606)
(55.7881 -1.0819 0.013373)
(57.3717 -1.0886 0.0091003)
(58.8702 -0.78217 0.005354)
(59.9263 -1.3564 0.0033074)
(60.7108 -1.0153 0.002043)
(61.0856 -0.91249 0.0012348)
(61.3124 -0.77551 0.00072959)
(61.4431 -0.55092 0.00054026)
(61.5012 -0.33394 0.0018038)
(61.5181 -0.11567 0.0018949)
(54.4625 -1.5115 0.01329)
(56.7023 -1.6716 0.0090479)
(58.6303 -1.1038 0.0053703)
(59.8504 -1.7923 0.0033266)
(60.8035 -1.4252 0.0020595)
(61.2858 -1.1757 0.0012471)
(61.5497 -0.96691 0.00073715)
(61.6944 -0.68058 0.00053669)
(61.7565 -0.40576 0.0017379)
(61.7736 -0.13883 0.0018282)
(51.6503 -2.4388 0.01324)
(55.4479 -3.079 0.0090372)
(58.4404 -1.8678 0.0054126)
(59.9647 -2.4457 0.0033614)
(61.0643 -1.9881 0.0020849)
(61.6236 -1.5137 0.0012643)
(61.8927 -1.1793 0.00074716)
(62.023 -0.81342 0.00053251)
(62.0711 -0.47552 0.0016717)
(62.0802 -0.16051 0.0017607)
(49.4618 -4.4234 0.013252)
(54.7272 -6.2538 0.0091074)
(58.948 -3.4771 0.0054955)
(60.6284 -3.3217 0.0034154)
(61.6568 -2.6191 0.0021194)
(62.1629 -1.8594 0.0012858)
(62.3626 -1.3635 0.00075889)
(62.4311 -0.9165 0.00052733)
(62.4389 -0.52647 0.0016049)
(62.4288 -0.17584 0.0016924)
(55.0337 -6.8817 0.013315)
(56.7925 -10.5194 0.0091991)
(60.7663 -5.5243 0.0055582)
(62.0158 -4.0579 0.0034423)
(62.6203 -3.0618 0.0021305)
(62.8891 -2.0754 0.0012907)
(62.9316 -1.4462 0.00076024)
(62.8933 -0.949 0.00051491)
(62.8374 -0.53799 0.001534)
(62.7979 -0.17853 0.0016236)
(63.7973 -6.0313 0.012854)
(61.0535 -11.076 0.008249)
(63.5536 -5.5281 0.0047383)
(63.8396 -3.7918 0.0029283)
(63.7941 -2.8458 0.0018093)
(63.6966 -1.8729 0.0010981)
(63.5217 -1.2826 0.00065547)
(63.3526 -0.83102 0.00046975)
(63.2248 -0.46821 0.0015105)
(63.1548 -0.15275 0.0015496)
(69.5341 -3.7708 0.01176)
(64.6896 -9.2616 0.0071268)
(65.8198 -4.6961 0.0039315)
(65.341 -2.965 0.002437)
(64.7837 -2.2733 0.0014988)
(64.3807 -1.4574 0.00091036)
(64.0215 -0.98248 0.00055127)
(63.7407 -0.62795 0.00042129)
(63.5497 -0.35177 0.0014629)
(63.4513 -0.11231 0.0014642)
(73.0687 -0.93129 0.010318)
(67.509 -5.9884 0.0058485)
(67.4501 -3.2724 0.0031761)
(66.4423 -1.7207 0.0019967)
(65.5161 -1.4044 0.0012382)
(64.8769 -0.85928 0.00076252)
(64.3758 -0.56402 0.0004703)
(64.0102 -0.35165 0.00038307)
(63.7711 -0.195 0.0013989)
(63.6507 -0.059777 0.0013734)
(74.7471 2.0449 0.0095)
(69.2647 -1.9329 0.0049935)
(68.3069 -1.4311 0.0027318)
(67.0208 -0.24618 0.0017278)
(65.8969 -0.33605 0.0010774)
(65.1162 -0.13591 0.0006737)
(64.5331 -0.064516 0.00042216)
(64.1201 -0.025963 0.00036065)
(63.8552 -0.011203 0.0013233)
(63.7232 0.00048281 0.0012808)
(74.7325 4.8489 0.0093761)
(69.87 2.3618 0.0048002)
(68.3644 0.71028 0.002641)
(67.0144 1.2839 0.0016651)
(65.8697 0.81582 0.0010355)
(65.0574 0.64002 0.00064978)
(64.4639 0.46642 0.00040843)
(64.0487 0.31724 0.00035423)
(63.7845 0.18147 0.001239)
(63.6534 0.062932 0.0011888)
(72.9466 7.2241 0.0087495)
(69.1452 6.3623 0.0045807)
(67.5834 3.0125 0.0024489)
(66.3864 2.7334 0.0015219)
(65.4053 1.9161 0.00094391)
(64.6887 1.3822 0.00058953)
(64.1653 0.96898 0.00036911)
(63.7975 0.64006 0.00032602)
(63.5625 0.3621 0.0011365)
(63.4451 0.12154 0.0010939)
(68.8212 8.7849 0.0063808)
(66.7847 9.5072 0.0035214)
(65.8568 5.1415 0.0017576)
(65.1351 3.9419 0.0010694)
(64.5238 2.8014 0.00067594)
(64.0402 1.9842 0.00042706)
(63.667 1.3756 0.0002685)
(63.3934 0.90174 0.00025227)
(63.2134 0.50905 0.0010179)
(63.1212 0.16946 0.00099532)
(61.7846 8.9186 0.0030296)
(62.6782 10.8375 0.0019139)
(63.2787 6.4799 0.00087064)
(63.4297 4.6235 0.00053458)
(63.3658 3.2987 0.00036905)
(63.213 2.3422 0.00024744)
(63.0417 1.6284 0.00015872)
(62.8907 1.0703 0.00016507)
(62.7807 0.60637 0.00090083)
(62.7203 0.20151 0.00089988)
(53.8532 6.8572 0.0010146)
(58.3108 9.1486 0.00089295)
(60.6996 6.265 0.0003096)
(61.7558 4.5191 0.00018063)
(62.2064 3.3147 0.00013944)
(62.3652 2.4108 0.00010096)
(62.3875 1.7055 6.6554e-05)
(62.3558 1.1343 7.9548e-05)
(62.315 0.64805 0.00079355)
(62.2864 0.21515 0.00081109)
(52.4815 2.658 0.00069685)
(57.0144 4.9331 0.00073306)
(59.434 4.6692 0.00014442)
(60.6838 3.8048 3.752e-05)
(61.3327 2.9764 2.2033e-05)
(61.654 2.2554 1.5725e-05)
(61.7971 1.639 1.0069e-05)
(61.8491 1.1089 5.9962e-06)
(61.8606 0.64018 0.00070162)
(61.8578 0.21129 0.00073284)
(55.8595 1.2574 0.00065682)
(57.6485 2.7782 0.00065418)
(59.146 3.0918 6.9549e-05)
(60.1243 2.8144 5.3092e-06)
(60.7305 2.3627 3.4454e-07)
(61.0883 1.8797 2.9466e-08)
(61.287 1.4141 -6.2209e-09)
(61.3893 0.97973 -1.743e-08)
(61.437 0.57459 0.00063494)
(61.4538 0.19092 0.00066012)
(57.5223 0.67437 0.0005849)
(58.3113 1.6476 0.00058358)
(59.1965 2.0403 3.9662e-05)
(59.8927 2.0252 2.1545e-06)
(60.3809 1.8076 1.3071e-07)
(60.7013 1.5026 1.5419e-08)
(60.8995 1.1669 -1.0673e-08)
(61.0144 0.82664 -2.2674e-08)
(61.0754 0.49187 0.00056954)
(61.1006 0.16437 0.00058692)
(58.4772 0.39418 0.0005124)
(58.8594 1.0233 0.00051171)
(59.3679 1.3608 2.2217e-05)
(59.8284 1.4397 8.7178e-07)
(60.1863 1.3506 6.478e-08)
(60.4413 1.1654 1.0478e-08)
(60.6113 0.93052 -1.3453e-08)
(60.7172 0.67239 -2.652e-08)
(60.7771 0.40527 0.00050226)
(60.8034 0.13611 0.00051365)
(59.0611 0.24423 0.00043958)
(59.2577 0.65838 0.00043922)
(59.5484 0.91813 1.2144e-05)
(59.8394 1.0171 3.6649e-07)
(60.0845 0.99179 4.4952e-08)
(60.2708 0.88245 8.1878e-09)
(60.4021 0.72121 -1.5404e-08)
(60.4882 0.53002 -2.9524e-08)
(60.5389 0.32311 0.00043329)
(60.5619 0.10902 0.00044033)
(59.4336 0.1568 0.00036658)
(59.5373 0.43289 0.00036639)
(59.7014 0.62316 6.3752e-06)
(59.8774 0.71336 1.7327e-07)
(60.0347 0.71626 3.8767e-08)
(60.1604 0.65296 6.7646e-09)
(60.2529 0.54382 -1.6891e-08)
(60.3157 0.40524 -3.1957e-08)
(60.3539 0.24939 0.00036294)
(60.3716 0.084478 0.00036698)
(59.6769 0.10207 0.00029345)
(59.7306 0.28604 0.00029336)
(59.8195 0.42055 3.136e-06)
(59.9193 0.49269 1.0258e-07)
(60.0124 0.50547 3.6515e-08)
(60.0897 0.46942 5.7171e-09)
(60.1483 0.39686 -1.8064e-08)
(60.1891 0.299 -3.3932e-08)
(60.2145 0.18537 0.00029151)
(60.2264 0.062981 0.00029361)
(59.8359 0.06547 0.00022023)
(59.8614 0.18518 0.00022018)
(59.905 0.27606 1.3943e-06)
(59.9553 0.32861 7.8555e-08)
(60.0037 0.3423 3.5433e-08)
(60.0448 0.32222 4.9191e-09)
(60.0767 0.27547 -1.897e-08)
(60.0993 0.2093 -3.5473e-08)
(60.1136 0.13051 0.00021928)
(60.1204 0.044448 0.00022022)
(59.9346 0.039215 0.00014693)
(59.9443 0.11151 0.00014691)
(59.9613 0.16763 5.3753e-07)
(59.9813 0.20159 7.1366e-08)
(60.0008 0.21212 3.4839e-08)
(60.0177 0.20147 4.4016e-09)
(60.0309 0.1735 -1.9555e-08)
(60.0404 0.13257 -3.6514e-08)
(60.0464 0.082997 0.00014649)
(60.0494 0.028309 0.00014682)
(59.9855 0.018482 5.3452e-08)
(59.9875 0.052758 4.3318e-08)
(59.9913 0.079603 -7.3306e-05)
(59.9958 0.096244 -7.3412e-05)
(60.0001 0.10181 -7.3434e-05)
(60.0039 0.097135 -7.3453e-05)
(60.0069 0.083946 -7.3467e-05)
(60.0091 0.064287 -7.3478e-05)
(60.0104 0.04026 -1.034e-07)
(60.0112 0.013675 -4.1598e-08)
)
;

boundaryField
{
    bump
    {
        type             noSlip;
    }
    outlet
    {
        type             zeroGradient;
    }
    inlet
    {
        type             fixedValue;
        value            uniform (60 0 0);
    }
    side1
    {
        type             empty;
    }
    side2
    {
        type             empty;
    }
    symmetry
    {
        type             symmetry;
    }
    top
    {
        type             symmetry;
    }
}

// ************************************************************************* //
