/*--------------------------------*- C++ -*----------------------------------*\\
| =========                 |                                                 |
| \\      /  F ield         | OpenFOAM: The Open Source CFD Toolbox           |
|  \\    /   O peration     | Version:  v1706                                 |
|   \\  /    A nd           | Web:      www.OpenFOAM.com                      |
|    \\/     M anipulation  |                                                 |
\\*---------------------------------------------------------------------------*/
FoamFile
{
    version     2.0;
    format      ascii;
    class       surfaceScalarField;
    location    "0.15";
    object      mdot_f;
}
// * * * * * * * * * * * * * * * * * * * * * * * * * * * * * * * * * * * * * //

dimensions      [1 0 -1 0 0 0 0]


internalField   nonuniform List<scalar>
906
(
-0.024761
0.017753
0.0039255
0.0030826
-0.0044052
-0.019137
-0.001219
-0.0305
0.034269
0.019541
-0.023309
0.035526
-0.03202
-0.034006
0.0056508
0.064697
-0.06384
-0.0065085
0.0027502
-0.065091
0.067991
-0.039049
0.037113
-0.0014492
0.0033849
-0.022869
0.015684
-0.031865
-0.069955
0.043338
-0.0089445
0.035561
-0.0021266
0.0018755
-0.069703
0.05531
-0.011015
0.013573
-0.057868
0.015868
-0.0056557
0.045097
-0.024125
-0.017666
0.0081845
0.033607
-0.02959
0.035322
-0.029857
0.046499
-0.011392
0.075302
-0.063748
0.0043134
0.00017825
0.071588
0.0035356
-0.0049666
-0.069797
0.02154
-0.014142
-0.0073982
-0.0029016
0.024442
0.014746
-0.021588
-0.0072994
0.036702
-0.019114
0.01703
-0.034617
0.039351
0.028526
-0.031175
0.037855
-0.021854
-0.029114
0.013112
0.041846
0.025576
-0.029567
0.032416
-0.0096847
-0.020679
0.019824
0.044193
-0.067598
0.052957
-0.006038
-0.067524
-0.0021996
-0.0032066
0.0047536
0.019312
-0.020859
0.0059478
0.0021193
-0.011275
0.0491
-0.03156
0.024192
-0.041733
0.051251
0.011423
-0.050078
0.01196
0.011741
-0.041069
0.064392
0.012202
-0.026094
-0.041203
0.026227
-0.041173
-0.016941
0.008592
0.044473
-0.0096167
-0.043448
0.035444
-0.0036593
-0.023193
0.0023807
0.037816
0.057433
-0.01058
0.035977
0.0097117
-0.019702
-0.0071887
0.017179
-0.017557
0.025036
0.0022323
-0.023255
-0.014004
-0.0038257
0.058565
0.0096529
0.023297
0.0002468
-0.030733
0.020995
0.019481
0.04707
0.0069763
-0.0075471
-0.041173
0.046655
0.015514
0.0061417
0.0026796
0.0027716
0.0029082
-0.041402
-0.024466
0.0005339
-0.010075
-0.048573
0.027016
0.034891
0.0096262
0.0090025
0.040401
0.001896
-0.013587
0.042066
0.0025902
-0.0021864
-0.0041939
0.0055645
0.042165
0.0010031
0.0084007
-0.038875
0.01193
0.042628
0.0073405
0.02204
0.0050832
0.042941
-0.0020133
-0.046011
0.039893
0.0023009
0.0010827
0.042941
-0.0010845
0.039303
0.0016726
0.00090402
0.042602
-0.00056533
0.038981
0.0012243
0.00038502
0.042635
-0.00041827
0.039101
0.00026428
0.00038207
0.042719
-0.00046666
0.039327
0.00015568
-4.2084e-05
0.043272
-0.00051189
0.039791
-0.00050659
-3.0855e-05
0.043464
-0.00016126
0.040331
-0.00057109
2.7353e-05
0.044196
-0.00075958
0.041075
-0.00071694
3.1108e-05
-0.00058494
0.04475
0.041441
-0.00033435
-0.06936
0.0064359
0.065674
0.0054219
-0.066242
-0.0042708
-0.067619
0.0036813
0.0034443
-0.0037552
-0.065932
0.0026596
-0.066835
-0.064406
-0.0037055
-0.065258
-0.0029031
0.062997
0.0017762
0.067648
0.007278
0.062759
0.0028745
0.061218
0.00045566
0.060316
0.00033637
0.059905
-8.6045e-06
0.059482
-4.4543e-05
0.059624
-0.00065456
0.060164
-0.00070211
0.060297
-0.00089256
0.060043
-0.00033031
0.070493
-0.00032539
-0.00062579
0.042393
-0.00070029
0.045126
-0.0013215
0.060665
-0.068044
0.06858
0.0031454
-0.067391
0.0020075
-0.002045
0.0013917
-0.066738
-0.0024126
-0.066467
-0.0023046
-0.06604
-0.065852
-0.0017108
0.069988
0.010617
0.064618
0.0039194
0.064861
0.0020566
0.06434
0.0021936
0.064087
0.0014757
0.063737
0.00061397
0.063641
0.00025005
0.063979
-0.00084387
0.064413
-0.0010059
0.064053
-0.00035702
0.063766
-4.6805e-05
-0.0010412
0.064182
0.072447
0.074367
0.0053583
0.074047
0.0031945
0.072444
0.002058
0.071822
0.00095791
0.071365
0.00044782
0.071133
0.0001878
0.071017
-0.00053928
0.070888
-0.00057377
0.070186
-0.00019015
0.070424
-0.00056824
0.070517
-0.0014146
0.005647
0.069369
0.057049
-0.077008
0.021835
0.0088772
0.039227
-0.069996
-0.0013639
-0.067962
0.0011114
-0.067395
0.0014411
-0.066796
0.00079205
-0.0010389
0.0006298
-0.066386
-0.0014032
-0.066374
-0.0015859
-0.066284
-0.0010932
-0.066532
-0.00084477
-0.0661
0.065711
-0.066377
-0.00017938
0.065004
-0.001004
0.064057
-0.0019562
0.063735
-0.0033833
0.061233
-0.0040076
0.05517
-0.0053292
0.050249
-0.0026276
0.052669
0.0037216
0.050735
0.0047054
0.066601
0.01036
0.067237
0.0090165
0.071684
0.0061689
0.071927
0.0036761
0.070961
0.0030212
0.071513
0.001641
0.071615
0.0013736
0.07181
0.00041736
0.07182
0.00023964
0.071958
-0.00098202
0.072019
-0.0010672
0.071698
-3.5951e-05
0.071624
2.7003e-05
0.071633
-0.0010511
0.00088217
-0.0007125
0.071464
0.00078707
0.064278
0.00018429
0.042996
-0.00077745
0.046088
-0.000823
0.060711
0.070192
-0.0004973
-0.0041697
0.042304
0.013436
0.048069
0.045725
0.03708
0.036084
0.031476
0.023022
0.021939
0.027272
0.034978
0.027991
0.034843
-0.070062
-0.0010046
-0.068689
-0.00026124
-0.067724
0.00047584
-0.067266
0.00033472
-0.066917
0.00028081
-0.00085584
-0.06623
0.00016855
-0.00057978
-0.066662
-0.00032872
-0.066625
-1.28e-05
-0.0666
5.015e-05
-0.066595
0.00021956
-0.06627
0.0004201
-0.066577
0.066101
-0.066587
0.0009064
0.065752
0.0001688
0.065243
-0.00049519
0.064934
-0.001647
0.063743
-0.0021933
0.062556
-0.0028213
0.05969
-0.0024636
0.057783
-0.00072085
0.057132
0.0043725
0.061051
0.00078552
0.066418
0.0049925
0.070194
0.0052396
0.072292
0.0040696
0.07288
0.0030872
0.073842
0.0020586
0.07373
0.0017521
0.073948
0.0011548
0.074401
-3.6394e-05
0.075318
-0.00067809
0.074543
-0.00020834
0.074157
-0.00068106
0.074535
-0.00041405
0.074119
0.0004431
0.0733
-0.00023207
0.073721
-0.0011338
0.00081769
-0.00035663
0.07326
0.00081203
0.07147
0.00064422
0.064446
-0.00016138
0.043803
-0.0006968
0.046625
-0.00063684
0.060652
-0.00076938
0.070325
-0.073062
-0.00040161
0.072695
-0.072442
-0.0011164
-0.073523
-0.00033406
-0.073755
-0.00033649
-0.073612
-0.00033311
-0.073856
-0.00033033
-0.074059
-0.00033607
-0.074176
0.00030364
-0.074359
0.00063061
-0.074614
0.0012117
-0.074728
0.0021715
-0.074398
0.0028641
0.0025476
-0.036683
-0.0028877
0.06676
-0.065805
-0.0059216
0.069671
0.0014022
0.07143
0.0017756
0.072219
0.0017583
0.073589
0.0014937
0.074578
0.0011816
0.074621
0.0011684
0.075001
0.00025028
0.075476
-0.00017212
0.075301
-0.00016149
0.075125
-0.00015519
0.074945
-0.00015261
0.074759
-0.00015122
0.074573
-0.00014819
0.073598
-0.00014167
0.07333
-0.00013371
-0.00013031
0.00057928
-0.066679
-0.00012694
-0.066666
-9.7953e-05
-0.066654
-5.2613e-05
-0.066646
-4.0947e-06
-0.066644
0.00037464
-0.066648
0.00045411
-0.066657
0.00053381
-0.066667
0.066531
0.00067801
-0.066675
0.067381
5.601e-05
0.067451
9.8309e-05
0.066789
0.00016666
0.065807
-0.0006656
0.064715
-0.0011009
0.062643
-0.0007505
0.0609
-0.00072087
0.060379
-0.00020053
0.063214
0.0015373
0.063313
0.00068576
0.066128
0.0021761
0.069118
0.0022495
0.071362
0.0018245
0.0732
0.0012483
0.073911
0.0013464
0.074906
0.00075585
0.076177
-0.00011754
0.076254
-0.00011459
0.075685
-0.00010953
0.075581
-0.00010508
0.075002
-0.00010276
0.074692
-0.00010467
0.075244
-0.00010969
0.075123
-0.00011137
0.074098
-0.00010903
0.073849
-0.00010694
0.00061824
-0.0006043
0.073835
0.00032658
0.073553
0.00041158
0.071385
0.00040534
0.064453
-0.00016433
0.044374
-0.00066084
0.047122
-0.0012526
0.061244
-0.001002
0.070075
-0.00080569
0.072499
0.072656
-0.00013143
-0.0012384
0.025876
0.014288
0.032542
0.019893
0.031476
0.022695
0.028674
0.018509
0.026124
0.023229
0.030259
0.022002
0.029217
0.022749
0.031919
0.0088494
0.035902
-0.0022712
0.043039
-0.0033155
0.045238
0.050748
-0.0011056
-0.068047
-0.00048172
-0.067969
-0.00033878
-0.06745
-4.3458e-05
-0.067138
2.3273e-05
-0.066774
-8.3144e-05
-0.066817
0.00021186
0.00045168
-0.066689
-0.017816
0.053065
0.015499
-0.0089518
-0.015567
0.0069479
-0.0083233
0.0023785
-0.013279
-0.010091
-0.028669
-0.042118
0.045949
-0.018527
0.021587
-0.034327
-0.026326
-0.00073124
-0.0059788
-0.042231
-0.018303
-0.023646
-0.036228
-0.027632
-0.028424
-0.036641
-0.033223
-0.025019
-0.015978
0.040491
-0.019058
0.038982
-0.019978
0.030138
-0.01857
0.028851
-0.017651
0.025205
-0.013289
0.024312
-0.0081967
0.026383
-0.0036088
0.027955
0.030452
0.032952
0.0025509
-0.026995
-0.026254
-0.0068895
-0.019859
-0.012111
-0.032499
-0.023589
0.039029
-0.023557
-0.045706
0.0037399
0.032438
-0.026632
-0.027161
0.036705
-0.021281
0.036202
-0.026128
0.029714
-0.020857
-0.025981
0.0052124
0.02779
0.026321
-0.018327
-0.021513
0.0090742
0.024093
0.012065
0.023393
-0.00068816
-0.015632
0.022511
0.020745
-0.016489
0.017487
0.0047397
0.018665
0.011167
0.016966
0.015422
-0.020697
0.0090699
0.003039
0.0083265
0.013114
0.0068903
0.0078398
0.067358
-0.06668
0.067413
0.067512
0.067678
0.067012
0.065911
0.06516
0.064439
0.064238
0.065775
0.06646
0.068636
0.070885
0.072709
0.073957
0.075303
0.076058
0.07594
0.075825
0.075715
0.07561
0.075507
0.075402
0.075292
0.075181
0.075072
0.074965
0.074361
0.00032309
0.00021576
0.0002923
0.00034164
0.00026944
-0.00015901
-0.00054162
-0.00063152
-0.00051401
-0.00032221
-0.00085546
-0.07435
-0.074482
-0.074615
-0.074757
-0.074905
-0.075056
-0.075209
-0.075365
-0.075526
-0.075699
-0.075449
-0.074281
-0.073099
-0.071606
-0.069848
-0.068073
-0.066671
-0.072592
-0.057093
-0.058198
-0.064236
-0.066436
-0.066917
-0.067256
-0.067299
-0.067276
-0.067359
-0.067147
-0.066695
-2.852e-05
-5.1151e-05
-6.3103e-05
-6.2039e-05
-4.8951e-05
-2.805e-05
-5.423e-06
1.2709e-05
2.2282e-05
2.1938e-05
1.3239e-05
0.015658
-0.0078185
0.024728
0.037841
0.028156
0.031896
0.0083067
-0.003804
-0.0014263
0.0041392
0.0019529
-0.021357
-0.020823
-0.02371
0.0009281
)
;

boundaryField
{
    bottom
    {
        type             calculated;
        value            uniform 0;
    }
    inlet
    {
        type             calculated;
        value            nonuniform List<scalar>
12
(
-0.066667
-0.066667
-0.066667
-0.066667
-0.066667
-0.066667
-0.066667
-0.066667
-0.066667
-0.066667
-0.066667
-0.066667
)
;
    }
    object
    {
        type             calculated;
        value            uniform 0;
    }
    outlet
    {
        type             calculated;
        value            nonuniform List<scalar>
12
(
0.073996
0.073452
0.073142
0.072256
0.069933
0.061366
0.047634
0.044952
0.064554
0.071319
0.073441
0.073902
)
;
    }
    side1
    {
        type             calculated;
        value            uniform 0;
    }
    side2
    {
        type             calculated;
        value            uniform 0;
    }
    top
    {
        type             calculated;
        value            uniform 0;
    }
}

// ************************************************************************* //
