/*--------------------------------*- C++ -*----------------------------------*\\
| =========                 |                                                 |
| \\      /  F ield         | OpenFOAM: The Open Source CFD Toolbox           |
|  \\    /   O peration     | Version:  v1706                                 |
|   \\  /    A nd           | Web:      www.OpenFOAM.com                      |
|    \\/     M anipulation  |                                                 |
\\*---------------------------------------------------------------------------*/
FoamFile
{
    version     2.0;
    format      ascii;
    class       volScalarField;
    location    "0.15";
    object      p;
}
// * * * * * * * * * * * * * * * * * * * * * * * * * * * * * * * * * * * * * //

dimensions      [0 2 -2 0 0 0 0]


internalField   nonuniform List<scalar>
479
(
-16.2334
-22.6264
-20.142
-11.3657
14.0138
14.6879
1.5851
-0.05718
9.6108
10.6497
-7.7128
-7.169
18.4369
16.2572
14.6307
-4.7385
-4.6454
-4.0335
49.0986
27.0346
33.2337
-13.1633
-11.02
-2.8297
-9.8575
-20.7355
7.8405
7.6702
9.3729
-10.2489
-16.1112
-11.0206
-11.8168
-9.1278
-8.5695
-10.4057
-6.4391
-11.177
-11.6133
-12.1646
-7.845
-7.8292
-10.5753
13.5543
14.6824
16.0698
-8.6176
13.5971
9.2617
13.7565
5.291
11.1591
-0.47828
-8.0954
-23.9835
-16.6766
5.1946
-2.4561
16.6701
16.4654
-14.6571
-35.508
-30.1286
-11.5976
-23.2607
-4.3913
0.18439
-3.4927
-6.2065
0.44343
0.8953
-0.16528
0.043372
-0.51714
-0.44396
-0.72208
-0.60794
-0.75412
-0.66645
-0.6531
-0.59204
-0.5466
-0.48394
-0.41377
-0.36336
-0.32266
-0.30485
14.4907
13.88
13.7763
13.3639
13.2902
13.5157
13.1735
-4.5892
-2.7609
-1.0878
-0.78119
-0.91697
-0.95617
-0.88881
-0.74942
-0.62202
-0.45591
-0.37788
-7.1478
-0.22049
-0.21935
-0.25439
13.3254
12.9867
12.7747
12.9792
13.0381
12.941
-6.748
-1.1129
-0.19762
-0.62799
-0.91244
-0.86923
-0.77113
-0.57929
-0.43143
-0.33588
-0.30927
-0.19551
-5.1783
-3.9526
-2.6562
-1.8284
-1.4726
-1.2633
-1.078
-0.87051
-0.6973
-0.54588
-0.43857
-0.28547
13.8619
12.6238
11.9352
12.6118
12.5549
12.5013
12.4648
12.4432
12.6453
12.7855
12.8346
12.7895
12.6791
12.7434
12.8252
12.9079
12.9269
12.6508
11.3404
8.0242
2.0895
-3.1336
-6.1798
-5.6914
-3.0734
-1.6356
-1.3188
-1.263
-1.1117
-0.92359
-0.69637
-0.53482
-0.44632
-0.37435
-0.25156
-0.17416
-0.086141
-0.095477
-0.096859
-0.14396
-0.19668
15.8844
15.5637
14.8316
14.1478
13.429
11.1073
9.0703
11.3457
11.74
11.9809
12.133
12.2281
12.2875
12.4316
12.569
12.6685
12.711
12.6941
12.6339
12.5557
12.5458
12.5188
12.4523
12.2986
11.9575
11.227
9.7151
6.9841
2.9746
-0.94464
-3.3664
-3.705
-2.6968
-1.723
-1.284
-1.1265
-0.98743
-0.82234
-0.64257
-0.50087
-0.399
-0.30827
-0.2187
-0.16383
-0.14
-0.12274
0.0017354
0.051102
0.039896
-0.051264
-0.11524
-0.10783
-0.21945
-0.31733
-0.448
-0.58514
-0.73734
-0.9154
-1.1253
-1.3506
-1.6434
-2.1164
-2.8965
-3.8796
-11.3893
-1.7374
-3.125
-3.6642
-3.4199
-2.8329
-2.2518
-1.8095
-1.4895
-1.2367
-1.0154
-0.82133
-0.65251
-0.50714
-0.38622
-0.29489
-0.24136
12.3215
12.4264
12.5277
12.6041
12.6424
12.6402
12.6069
12.5588
12.5143
12.4857
12.4306
12.3305
12.1521
11.8375
11.2912
10.3554
8.8224
6.521
3.5014
0.45706
-1.664
-2.4759
-2.293
-1.7917
-1.4286
-1.234
-1.0886
-0.93486
-0.77426
-0.6255
-0.50027
-0.39824
-0.31471
-0.25637
-0.23086
-0.23368
-0.14416
-0.096988
0.077756
0.21628
0.20544
0.07335
-0.052507
-0.12869
-0.26196
17.6661
17.3818
16.9143
15.9461
14.581
11.6758
8.935
7.4846
6.8655
5.7634
5.6554
5.1884
10.4539
11.1395
11.5828
11.8711
12.0557
12.1707
12.236
2.2888
-15.1867
-28.8539
-20.9156
-14.5946
-12.9891
3.0831
-0.45505
3.2996
-2.5921
-17.6452
-9.5695
-5.3092
-2.1626
0.56342
3.6176
4.9371
7.9401
11.9063
15.8486
18.3429
19.766
20.4286
20.4056
19.6714
21.1186
21.7989
21.2354
-27.6037
-14.0622
1.0554
-10.0936
-24.4473
-2.0169
-6.1614
2.1148
-1.9353
-7.6755
5.3199
0.097012
23.1385
10.9405
7.7302
24.595
23.869
26.6364
17.2455
21.6128
18.3985
30.0739
29.8321
26.3444
16.8531
38.7017
38.6327
32.8933
12.4882
12.4455
12.3648
12.2244
11.9862
11.5898
10.9458
9.9351
8.4235
6.3396
3.7329
1.1128
-0.87457
-1.869
-2.0007
-1.7167
-1.4077
-1.1966
-1.0428
-0.89738
-0.74847
-0.60566
-0.4815
-0.38111
-0.30371
-0.25168
-0.2288
-0.23581
-0.2517
-0.25213
-0.17338
-0.090889
0.14661
0.44075
0.413
0.15096
-0.11832
-0.28551
-0.32
-0.28327
-0.26509
-0.26844
-0.31386
-0.39607
-0.50942
-0.65099
-0.82018
-1.0178
-1.2469
-1.518
-1.8539
-2.273
-2.7323
-3.0654
-2.9885
-2.2012
-0.5154
1.9454
4.6612
7.0147
8.7306
9.9539
10.7968
11.3594
11.7259
11.9605
12.106
12.1885
12.2216
12.2624
12.3352
12.4246
12.5116
12.5789
12.6153
12.6186
12.5957
12.5596
12.5249
12.5043
49.3899
16.2836
-32.0778
-63.6273
-74.3153
-62.3814
-46.4717
-36.7058
-35.7766
-39.9184
-47.6937
-52.5622
-51.4587
-13.6396
55.7405
56.1488
1.627
-17.0655
)
;

boundaryField
{
    bottom
    {
        type             symmetry;
    }
    inlet
    {
        type             zeroGradient;
    }
    object
    {
        type             zeroGradient;
    }
    outlet
    {
        type             fixedValue;
        value            uniform 0;
    }
    side1
    {
        type             empty;
    }
    side2
    {
        type             empty;
    }
    top
    {
        type             symmetry;
    }
}

// ************************************************************************* //
