/*--------------------------------*- C++ -*----------------------------------*\\
| =========                 |                                                 |
| \\      /  F ield         | OpenFOAM: The Open Source CFD Toolbox           |
|  \\    /   O peration     | Version:  v1706                                 |
|   \\  /    A nd           | Web:      www.OpenFOAM.com                      |
|    \\/     M anipulation  |                                                 |
\\*---------------------------------------------------------------------------*/
FoamFile
{
    version     2.0;
    format      ascii;
    class       volVectorField;
    location    "0.15";
    object      U;
}
// * * * * * * * * * * * * * * * * * * * * * * * * * * * * * * * * * * * * * //

dimensions      [0 1 -1 0 0 0 0]


internalField   nonuniform List<vector>
479
(
(5.3425 -1.768 1.0231e-06)
(6.8508 -1.4357 1.0309e-06)
(10.5642 -0.057151 9.1995e-07)
(11.9415 -0.24342 9.7581e-07)
(9.8334 0.21219 3.7185e-07)
(9.7274 0.099332 2.3698e-07)
(5.504 -0.078428 1.3686e-06)
(5.4354 -0.23601 1.4501e-06)
(10.2996 -0.44219 7.6997e-06)
(10.2136 -0.34925 8.6401e-06)
(11.7432 -0.26429 2.3599e-05)
(11.6601 -0.040691 2.1992e-05)
(9.3563 0.39757 4.0879e-07)
(9.5794 0.41427 5.137e-07)
(9.8056 0.41969 7.846e-07)
(11.573 -0.018628 6.5726e-05)
(11.5334 0.042917 6.4548e-05)
(11.5543 -0.21109 7.7508e-05)
(6.3311 3.2795 4.0298e-07)
(8.6553 5.7332 5.1152e-07)
(6.7744 1.9343 3.7194e-07)
(12.029 -0.95197 2.49e-06)
(11.8384 -0.83235 5.3465e-06)
(10.948 -2.9833 4.9995e-07)
(11.6463 -2.4485 7.9565e-07)
(12.2329 -1.1985 8.5005e-07)
(10.5053 -0.42109 7.4541e-05)
(10.5306 -0.24086 0.00021585)
(10.3583 -0.23884 0.00019043)
(5.1733 1.8005 2.8099e-06)
(2.1296 1.82 2.2823e-06)
(11.7403 -0.023896 7.5211e-06)
(11.7442 0.048307 1.083e-05)
(11.7987 -0.55297 1.3606e-05)
(3.0722 -0.97893 1.2884e-06)
(11.8368 -0.0009024 1.1e-06)
(11.6792 0.64643 1.085e-06)
(11.8259 1.0488 9.8809e-07)
(11.0324 0.56593 6.3616e-06)
(8.7709 1.2167 3.9814e-06)
(7.7927 1.269 3.6497e-06)
(10.6974 0.55819 7.8431e-06)
(11.5962 0.21132 1.0658e-05)
(9.5811 2.1119 6.3646e-07)
(9.6438 2.4909 6.6446e-07)
(9.2872 1.9312 5.9072e-07)
(11.5515 -0.31704 1.1473e-06)
(9.8726 1.485 6.352e-07)
(10.105 1.91 7.1795e-07)
(9.9484 0.782 1.2285e-06)
(10.7738 1.3533 1.0675e-06)
(10.343 1.0332 1.2183e-06)
(11.339 1.073 1.0955e-06)
(11.6644 1.5139 9.5119e-07)
(12.2995 -0.74502 8.8449e-07)
(12.3241 1.3251 8.0053e-07)
(10.4658 2.4458 7.5518e-07)
(11.1889 2.011 8.9632e-07)
(9.5757 0.8246 6.4237e-07)
(9.5713 1.1944 6.1277e-07)
(10.6037 -0.6283 1.0517e-06)
(8.3746 -0.68519 1.0102e-06)
(-1.0396 -0.1883 1.1849e-06)
(9.6872 -1.0144 1.0586e-06)
(-2.1523 -0.72454 1.4023e-06)
(3.4534 0.56159 2.083e-06)
(5.9366 0.38752 2.5603e-06)
(6.5527 0.99351 3.2229e-06)
(7.7611 -0.82295 1.0944e-06)
(6.1561 0.15869 2.1885e-06)
(5.7046 -0.021227 1.2837e-06)
(6.2791 0.10721 1.8981e-06)
(5.7965 0.0094783 1.1983e-06)
(6.3499 0.070066 1.7741e-06)
(5.8437 0.035027 1.1095e-06)
(6.4096 0.041895 1.6508e-06)
(5.8735 0.042339 1.0147e-06)
(6.4658 0.029881 1.5404e-06)
(5.8995 0.0392 9.2354e-07)
(6.5213 0.02802 1.4405e-06)
(5.9668 0.026565 8.3252e-07)
(6.5574 0.029752 1.3254e-06)
(6.0382 0.011411 7.4785e-07)
(6.632 0.037478 1.2571e-06)
(6.1303 6.8807e-05 6.7136e-07)
(6.7018 0.045982 1.1757e-06)
(6.1983 -0.0049297 6.0006e-07)
(9.7504 -0.076426 2.2429e-07)
(9.8358 0.034693 2.255e-07)
(9.8415 -0.062647 2.2346e-07)
(9.9003 0.0096944 2.2497e-07)
(9.9039 -0.050382 2.2413e-07)
(9.8872 0.11323 2.5169e-07)
(9.9282 0.059327 2.2542e-07)
(10.0164 0.56641 7.0255e-06)
(9.2338 0.40245 6.0469e-06)
(9.1057 0.28384 5.7777e-06)
(9.0769 0.21178 5.4964e-06)
(9.0748 0.16578 5.2075e-06)
(9.072 0.13942 4.9385e-06)
(9.0671 0.12826 4.6802e-06)
(9.0785 0.12535 4.5031e-06)
(9.089 0.12774 4.3314e-06)
(9.1058 0.13098 4.1818e-06)
(9.1097 0.13487 3.9671e-06)
(11.5031 0.14779 1.6681e-05)
(6.295 -0.01163 5.4078e-07)
(6.7785 0.056857 1.1062e-06)
(9.1347 0.13979 3.8908e-06)
(9.8889 -0.14949 2.1794e-07)
(9.9341 -0.10193 2.1845e-07)
(9.9627 -0.068094 2.1974e-07)
(9.9444 -0.037054 2.2568e-07)
(9.9417 -0.0010455 2.2663e-07)
(9.9563 0.030175 2.2241e-07)
(10.241 -0.50696 1.1358e-06)
(9.9113 -0.36682 1.1272e-06)
(9.7538 -0.26113 1.1133e-06)
(9.6918 -0.19677 1.0867e-06)
(9.6351 -0.15353 1.0506e-06)
(9.6243 -0.12755 1.0079e-06)
(9.6177 -0.117 9.604e-07)
(9.6279 -0.11487 9.2752e-07)
(9.6422 -0.11592 9.0134e-07)
(9.6476 -0.11639 8.616e-07)
(9.644 -0.11833 8.1659e-07)
(9.6515 -0.12108 8.0788e-07)
(11.3296 0.20825 1.6194e-05)
(11.0366 0.21451 1.49e-05)
(10.8717 0.16547 1.4169e-05)
(10.8042 0.11813 1.3702e-05)
(10.767 0.089675 1.3229e-05)
(10.7425 0.0747 1.2759e-05)
(10.7183 0.068765 1.2281e-05)
(10.6974 0.068347 1.2157e-05)
(10.6764 0.071793 1.2048e-05)
(10.6527 0.074679 1.1734e-05)
(10.6273 0.080448 1.1645e-05)
(10.604 0.08575 1.2022e-05)
(9.8096 -0.21686 2.2026e-07)
(9.9714 -0.39239 4.6505e-07)
(10.0251 -0.50023 4.7522e-07)
(9.967 -0.28829 2.6241e-07)
(9.9792 -0.19323 2.0924e-07)
(9.9881 -0.12815 2.0945e-07)
(9.9937 -0.083522 2.1047e-07)
(9.9971 -0.053545 2.1191e-07)
(9.9801 -0.044744 2.2141e-07)
(9.9697 -0.026499 2.2759e-07)
(9.9679 -0.0047835 2.2877e-07)
(9.9753 0.014612 2.2433e-07)
(9.9883 0.026179 2.1695e-07)
(9.9809 0.047699 2.263e-07)
(9.9726 0.084417 3.3315e-07)
(9.9673 0.14638 7.383e-07)
(9.9764 0.24855 1.5763e-06)
(10.0307 0.42107 3.1514e-06)
(10.2106 0.65816 4.0341e-06)
(10.6186 0.96778 3.6826e-06)
(11.1354 0.73296 3.5162e-06)
(11.5378 0.44843 2.6991e-06)
(11.6144 0.12639 2.4958e-06)
(11.2915 -0.10197 2.3021e-06)
(11.0514 -0.074941 2.228e-06)
(10.9413 -0.030348 2.1795e-06)
(10.8867 -0.014899 2.1236e-06)
(10.85 -0.01044 2.0733e-06)
(10.8247 -0.0069233 2.0303e-06)
(10.8053 -0.006957 1.9885e-06)
(10.7948 -0.008512 2.163e-06)
(10.7886 -0.010646 2.423e-06)
(10.7784 -0.012545 2.4485e-06)
(10.7634 -0.017386 2.4682e-06)
(10.7511 -0.021585 2.8501e-06)
(10.739 -0.023252 3.2464e-06)
(9.6575 -0.12177 8.0741e-07)
(6.4021 -0.018195 4.8362e-07)
(6.8593 0.064885 1.0397e-06)
(9.1482 0.14186 3.7382e-06)
(10.5761 0.089806 1.1883e-05)
(9.595 0.12103 2.4072e-07)
(9.6352 -0.10146 2.2907e-07)
(9.712 -0.26388 2.2538e-07)
(9.7628 -0.4187 3.1036e-07)
(9.8445 -0.59114 3.5287e-07)
(10.047 -0.63232 4.4182e-07)
(10.2873 -0.60228 4.5712e-06)
(10.1272 -0.25735 3.1206e-06)
(10.0759 -0.1793 7.5791e-07)
(10.0462 -0.12023 2.0059e-07)
(10.0275 -0.078181 2.0111e-07)
(10.0155 -0.049917 2.0208e-07)
(10.0079 -0.03097 2.0332e-07)
(9.9989 -0.033399 2.1359e-07)
(9.9905 -0.028579 2.2331e-07)
(9.9852 -0.018148 2.2967e-07)
(9.9842 -0.0052033 2.31e-07)
(9.9876 0.0065117 2.2658e-07)
(9.9938 0.013884 2.1899e-07)
(10.0008 0.015525 2.1113e-07)
(10.0025 0.028031 2.0944e-07)
(10.0071 0.048763 9.764e-07)
(10.0179 0.08217 3.9993e-06)
(10.0412 0.13445 8.5767e-06)
(10.0909 0.21497 1.5222e-05)
(10.1892 0.33142 2.1712e-05)
(10.3794 0.47519 2.3757e-05)
(10.6871 0.59598 2.2284e-05)
(11.0674 0.53832 2.061e-05)
(11.3744 0.36444 1.7812e-05)
(11.4957 0.14207 1.5806e-05)
(11.443 -0.021841 1.4545e-05)
(11.3379 -0.066636 1.3775e-05)
(11.2609 -0.065094 1.3135e-05)
(11.2251 -0.063268 1.2706e-05)
(11.2026 -0.06493 1.2309e-05)
(11.185 -0.066043 1.241e-05)
(11.168 -0.066154 1.5547e-05)
(11.1526 -0.065318 1.6699e-05)
(11.1393 -0.064666 2.0381e-05)
(11.1251 -0.066272 2.296e-05)
(11.1082 -0.069546 2.318e-05)
(11.091 -0.070546 2.5148e-05)
(11.0751 -0.070006 3.2464e-05)
(11.0589 -0.069213 3.5411e-05)
(10.7283 -0.022681 3.7433e-06)
(9.6648 -0.11794 8.1558e-07)
(6.5055 -0.020299 4.3697e-07)
(6.9385 0.067788 9.7096e-07)
(9.1566 0.13994 3.5697e-06)
(10.5483 0.093777 1.1937e-05)
(10.9539 0.073873 5.8753e-05)
(10.9858 0.07543 5.7754e-05)
(11.0184 0.075895 5.3176e-05)
(11.0498 0.075798 5.2506e-05)
(11.0797 0.073635 5.1912e-05)
(11.1069 0.073107 5.1426e-05)
(11.1326 0.073451 5.1061e-05)
(11.1582 0.07538 5.0793e-05)
(11.185 0.078225 5.2121e-05)
(11.2159 0.083562 5.3514e-05)
(11.2596 0.091649 5.5126e-05)
(11.3299 0.09947 5.7311e-05)
(11.4282 0.090735 6.0168e-05)
(11.9677 1.495 7.3424e-07)
(11.3572 -0.18294 0.00019497)
(11.4424 -0.086455 0.00021239)
(11.4569 -0.012418 0.00022868)
(11.4204 0.032444 0.00024476)
(11.3675 0.04907 0.00025806)
(11.3198 0.048634 0.00027169)
(11.283 0.043214 0.00028683)
(11.2532 0.03803 0.00030317)
(11.2262 0.0339 0.00032058)
(11.2005 0.03061 0.00033834)
(11.1748 0.028658 0.00035568)
(11.1488 0.02784 0.00037257)
(11.122 0.027416 0.000389)
(11.0948 0.026305 0.00040494)
(11.068 0.024752 0.00042032)
(11.0436 0.020618 0.00043531)
(10.0032 -0.017922 2.0474e-07)
(9.9996 -0.019501 2.1547e-07)
(9.9964 -0.016979 2.2543e-07)
(9.9943 -0.011261 2.3191e-07)
(9.9938 -0.0040603 2.3329e-07)
(9.9951 0.0025215 2.2884e-07)
(9.9975 0.0068406 2.2111e-07)
(10.0002 0.0080538 2.1287e-07)
(10.0024 0.006278 4.3275e-05)
(10.0065 0.01186 6.3715e-05)
(10.0143 0.021023 8.4428e-05)
(10.0281 0.035735 0.00010511)
(10.0522 0.058389 0.00012586)
(10.0938 0.092206 0.00014723)
(10.1637 0.14127 0.0001695)
(10.2792 0.20589 0.00019309)
(10.4592 0.27548 0.00021814)
(10.714 0.33442 0.00022928)
(10.995 0.30476 0.00025195)
(11.2392 0.21744 0.00025877)
(11.3768 0.10194 0.00026357)
(11.405 0.012388 0.00027122)
(11.3721 -0.024277 0.00028105)
(11.3312 -0.027467 0.00029333)
(11.3033 -0.023828 0.00030587)
(11.2847 -0.021415 0.0003203)
(11.2689 -0.018744 0.00033881)
(11.2525 -0.015773 0.00035696)
(11.2363 -0.012558 0.00037488)
(11.2203 -0.010142 0.00039243)
(11.2042 -0.0090445 0.00040967)
(11.187 -0.0085943 0.00042458)
(11.1697 -0.0070996 0.00044103)
(11.1527 -0.0054667 0.00045689)
(11.1362 -0.0037073 0.00047232)
(11.119 -0.0020219 0.00050924)
(11.043 -0.067138 6.1802e-05)
(10.7159 -0.01873 2.5734e-05)
(9.6671 -0.10826 2.2589e-05)
(6.5975 -0.015833 2.2726e-05)
(7.0182 0.067283 2.3122e-05)
(9.1799 0.13211 2.5421e-05)
(10.526 0.091678 3.3633e-05)
(10.8914 0.07645 8.1877e-05)
(11.0213 0.016778 0.00047134)
(9.406 0.12665 2.4713e-07)
(9.421 -0.12893 2.3483e-07)
(9.4813 -0.33101 2.352e-07)
(9.5691 -0.54479 2.915e-07)
(9.7123 -0.78321 3.3592e-07)
(10.0037 -0.85831 4.2231e-07)
(10.2808 -0.83773 2.7037e-06)
(10.4744 -0.56716 2.9859e-05)
(10.5144 -0.75708 1.6469e-05)
(10.663 -0.63518 2.996e-05)
(10.7315 -0.41053 8.6297e-05)
(10.7659 -0.24902 0.00025202)
(10.2271 -0.17207 0.00016763)
(10.1438 -0.12003 0.00014629)
(10.0893 -0.081867 0.00012554)
(10.0534 -0.053846 0.00010568)
(10.03 -0.034569 8.5341e-05)
(10.0151 -0.021523 6.46e-05)
(10.006 -0.012555 4.3479e-05)
(11.0247 -0.24677 0.00022984)
(6.8974 1.7814 2.9903e-06)
(2.5413 1.2777 1.6374e-06)
(5.1939 1.9478 2.3624e-06)
(8.7686 1.1935 3.4574e-06)
(11.1385 0.5591 5.5646e-06)
(10.9481 -0.46617 6.8057e-05)
(11.2312 -0.29318 0.00015839)
(10.6836 2.9628 6.3792e-07)
(11.4359 -0.40013 6.9878e-05)
(8.2056 1.2714 2.7917e-06)
(10.8726 0.64605 4.2408e-06)
(11.6889 -0.56747 2.0232e-05)
(11.3707 -0.62581 3.2437e-05)
(11.1526 -0.52442 5.0338e-05)
(10.8466 -0.70864 2.4829e-05)
(10.6834 -0.93341 1.1363e-05)
(10.3795 -1.1261 1.7959e-06)
(9.988 -1.1955 4.1349e-07)
(9.5667 -1.0917 3.3823e-07)
(9.3031 -0.78912 2.9338e-07)
(9.1556 -0.44942 2.5008e-07)
(9.0817 -0.12043 2.5128e-07)
(9.1271 0.26785 3.002e-07)
(9.1783 0.70361 4.4736e-07)
(8.8976 3.3368 5.3109e-07)
(8.3816 2.302 4.7341e-07)
(9.0013 1.2079 4.5379e-07)
(6.7948 0.82318 1.7168e-06)
(10.207 0.85466 2.1111e-06)
(11.0596 -0.8154 1.8516e-05)
(11.617 0.39911 2.9989e-06)
(12.0618 0.91792 1.5002e-06)
(11.3375 -0.91671 1.301e-05)
(11.6563 -0.97902 8.6008e-06)
(10.9262 -1.1295 7.8171e-06)
(11.2844 -1.3544 5.0022e-06)
(11.6707 -1.5538 3.3312e-06)
(10.6133 -1.4718 1.2827e-06)
(11.0495 -1.911 9.6066e-07)
(8.7883 0.47886 3.2797e-07)
(10.0616 -1.6787 4.3508e-07)
(10.36 -2.3371 4.7141e-07)
(8.584 -0.047176 2.8101e-07)
(8.6152 -0.58974 2.7912e-07)
(8.2461 0.92995 3.4882e-07)
(9.3748 -1.6036 3.6443e-07)
(8.8698 -1.1883 3.1575e-07)
(9.2232 -2.3935 3.9974e-07)
(7.7513 0.13196 3.0174e-07)
(7.8434 -0.83971 3.0702e-07)
(8.2562 -1.8208 3.4157e-07)
(8.7357 -3.9301 4.3909e-07)
(6.1662 0.52904 3.2784e-07)
(6.1864 -1.4629 3.3988e-07)
(6.7684 -3.1114 3.7578e-07)
(10.0037 0.0024077 4.3934e-05)
(10.0098 0.0044309 6.4971e-05)
(10.0208 0.0077621 8.5876e-05)
(10.0398 0.01315 0.00010648)
(10.0712 0.021285 0.00012671)
(10.122 0.033016 0.00014752)
(10.2027 0.049256 0.00016973)
(10.3241 0.06926 0.00019345)
(10.4954 0.089065 0.00021913)
(10.7183 0.10509 0.00024521)
(10.9606 0.099543 0.00027153)
(11.1739 0.076482 0.00029653)
(11.3117 0.043766 0.00031853)
(11.3643 0.016015 0.00033834)
(11.3584 0.0016725 0.00035693)
(11.3315 -0.0025275 0.00037412)
(11.3071 -0.0037874 0.00039121)
(11.2887 -0.0054778 0.00040852)
(11.2726 -0.0075755 0.00042548)
(11.2567 -0.0095853 0.00044198)
(11.2407 -0.011535 0.00045804)
(11.2249 -0.013575 0.00047359)
(11.2093 -0.015757 0.00048861)
(11.1934 -0.017907 0.00050298)
(11.1775 -0.019781 0.00051661)
(11.1617 -0.021345 0.0005296)
(11.1466 -0.022748 0.00054182)
(11.1308 -0.023922 0.00057486)
(11.0994 -0.025161 0.00056418)
(11.0853 -0.00097646 0.00050142)
(11.0161 -0.064639 4.2213e-05)
(10.6979 -0.011669 4.1087e-06)
(9.6831 -0.090785 6.1107e-07)
(6.7428 -0.0043994 5.0074e-07)
(7.1451 0.057169 9.3234e-07)
(9.2049 0.1115 3.3306e-06)
(10.4899 0.079878 1.1691e-05)
(10.8384 0.072049 6.0384e-05)
(10.9713 0.018796 0.0004636)
(11.0178 0.018092 0.00056168)
(11.0583 0.015924 0.00057217)
(11.0774 0.015272 0.00053897)
(11.0971 0.015645 0.00052672)
(11.118 0.015657 0.0005138)
(11.1399 0.015265 0.00050025)
(11.1621 0.01455 0.00048603)
(11.1847 0.013721 0.00047118)
(11.2079 0.013028 0.00045575)
(11.232 0.012642 0.00043979)
(11.258 0.012723 0.00042338)
(11.2873 0.013323 0.00040727)
(11.3218 0.013492 0.00039239)
(11.3605 0.011424 0.00037652)
(11.3947 0.0028837 0.00036041)
(11.4052 -0.01559 0.00034372)
(11.3666 -0.041946 0.00032527)
(11.2587 -0.069561 0.000301)
(11.0738 -0.11467 0.00027582)
(10.817 -0.061198 0.00024664)
(10.5917 -0.062178 0.00020455)
(10.4165 -0.061813 0.00018023)
(10.2804 -0.052865 0.00016239)
(10.1813 -0.040275 0.0001442)
(10.1133 -0.028732 0.00012563)
(10.0676 -0.019499 0.00010638)
(10.0379 -0.012685 8.6328e-05)
(10.019 -0.0079221 6.5686e-05)
(10.0076 -0.0045698 4.4539e-05)
(10.0017 -0.0021206 6.404e-07)
(10.0014 -0.0058753 2.3501e-07)
(10.0007 -0.0084285 -2.1727e-05)
(9.9999 -0.009212 -2.1732e-05)
(9.9992 -0.0081473 -2.1726e-05)
(9.9987 -0.0056161 -2.1722e-05)
(9.9986 -0.0023843 -2.1721e-05)
(9.9989 0.00063546 -2.166e-05)
(9.9994 0.0026789 -2.1606e-05)
(10 0.0033396 -2.1592e-05)
(10.0005 0.0026576 4.006e-07)
(10.0008 0.0010043 7.0713e-07)
(6.3218 -4.6878 4.1715e-07)
(9.1891 -6.5679 5.0629e-07)
(12.3629 -5.9373 5.8385e-07)
(13.5875 -4.8732 6.396e-07)
(13.3565 -2.4509 7.9286e-07)
(10.817 -1.8945 8.412e-07)
(3.8805 -2.4959 1.0437e-06)
(-1.9285 -1.4073 1.4463e-06)
(-2.5837 -0.51188 1.0758e-06)
(-5.1181 1.5244 1.019e-06)
(9.705 2.9027 7.6064e-07)
(12.7531 3.2098 6.8982e-07)
(12.8602 5.3794 6.2837e-07)
(11.2672 6.39 5.7326e-07)
(5.1324 1.1368 3.5958e-07)
(5.0923 -1.9682 3.7753e-07)
(5.8628 0.29291 2.1983e-06)
(12.371 1.0557 9.2935e-07)
)
;

boundaryField
{
    bottom
    {
        type             symmetry;
    }
    inlet
    {
        type             fixedValue;
        value            uniform (10 0 0);
    }
    object
    {
        type             noSlip;
    }
    outlet
    {
        type             zeroGradient;
    }
    side1
    {
        type             empty;
    }
    side2
    {
        type             empty;
    }
    top
    {
        type             symmetry;
    }
}

// ************************************************************************* //
