/*--------------------------------*- C++ -*----------------------------------*\\
| =========                 |                                                 |
| \\      /  F ield         | OpenFOAM: The Open Source CFD Toolbox           |
|  \\    /   O peration     | Version:  v1706                                 |
|   \\  /    A nd           | Web:      www.OpenFOAM.com                      |
|    \\/     M anipulation  |                                                 |
\\*---------------------------------------------------------------------------*/
FoamFile
{
    version     2.0;
    format      ascii;
    class       surfaceScalarField;
    location    "3";
    object      mdot_f;
}
// * * * * * * * * * * * * * * * * * * * * * * * * * * * * * * * * * * * * * //

dimensions      [1 0 -1 0 0 0 0]


internalField   nonuniform List<scalar>
13482
(
-3.2721e-07
-1.9245e-07
3.4087e-07
1.7879e-07
-4.6643e-10
-3.2676e-07
4.2843e-07
-4.2889e-07
1.3389e-07
1.0207e-07
5.3553e-09
-3.936e-09
-1.4193e-09
-2.0218e-06
1.1766e-06
8.5055e-07
1.9844e-06
-1.9883e-06
8.7516e-08
8.2136e-07
1.0754e-06
-1.6128e-06
-2.7161e-06
2.3406e-06
-5.1352e-06
3.6096e-06
7.8862e-07
-1.989e-06
-2.8406e-06
1.3934e-06
1.4179e-06
2.9318e-08
-2.8496e-06
8.993e-09
-1.5245e-06
-3.6741e-06
2.349e-06
-2.4293e-06
-8.4077e-07
1.7455e-06
-3.5159e-06
-1.5818e-07
-6.5215e-06
5.762e-07
-1.4221e-07
6.9477e-07
-2.6238e-08
-1.5949e-06
6.8706e-07
9.3409e-07
-2.7023e-08
8.27e-10
-1.0372e-06
-6.9975e-07
-2.3048e-06
-5.2539e-06
-2.3318e-06
-1.9407e-07
5.4732e-08
1.3934e-07
-2.2101e-05
2.2243e-05
-3.3669e-07
7.7186e-06
-4.144e-06
-2.5675e-05
7.7656e-08
3.477e-06
4.1634e-06
1.323e-07
-5.2241e-07
5.2219e-07
2.213e-10
2.8193e-06
-6.9974e-07
-2.642e-06
1.8571e-06
1.4843e-06
3.5153e-06
9.5479e-07
-2.613e-06
9.5432e-07
-1.7829e-07
7.0827e-07
1.8411e-06
2.6284e-06
-1.5361e-06
1.4419e-06
-3.4149e-06
3.509e-06
1.0227e-06
-5.0312e-06
2.4724e-06
5.3179e-08
-1.9303e-06
3.3191e-06
-1.0369e-06
2.5522e-06
-1.4621e-06
-1.975e-06
1.9608e-06
3.3933e-06
6.7512e-06
-8.4154e-06
-1.729e-06
5.4816e-06
-3.4281e-07
-3.6925e-06
5.8121e-06
3.3619e-06
7.1092e-07
2.3476e-06
4.43e-06
3.3038e-06
-8.8882e-06
1.1544e-06
2.2038e-06
2.2409e-06
-1.4729e-08
1.0854e-06
7.0183e-06
-1.4738e-05
6.6343e-06
1.1307e-09
3.2878e-06
4.0759e-10
7.0211e-10
1.6768e-09
-1.8095e-06
8.826e-06
2.0182e-09
-1.2196e-05
7.6206e-07
2.2317e-07
-1.4556e-05
-4.0009e-08
1.4372e-05
1.505e-07
7.2646e-08
-6.3202e-07
7.73e-07
9.5242e-09
-3.2968e-06
-1.1891e-05
9.0926e-09
1.0399e-05
-1.1857e-05
1.4497e-06
7.3944e-09
1.466e-09
3.908e-09
3.4864e-09
2.0487e-06
8.3535e-06
3.0508e-06
1.2269e-06
-4.5981e-06
3.2036e-07
1.9706e-06
-2.7043e-06
3.7845e-06
1.1155e-06
1.1069e-06
-9.955e-07
-1.2765e-08
3.0988e-06
4.4763e-06
5.8472e-06
-9.7628e-06
-5.606e-07
1.206e-06
-2.06e-07
3.4763e-06
2.4551e-06
-7.243e-06
4.6751e-06
-1.3645e-07
-6.4755e-06
1.6875e-06
-4.9022e-07
-7.9001e-06
1.9149e-06
-1.2705e-05
2.4524e-06
1.5279e-06
-1.5283e-06
3.3003e-10
-7.7197e-07
1.9184e-06
3.8146e-07
5.9842e-06
-6.6751e-06
-8.3734e-07
3.9029e-06
1.3092e-06
-2.4268e-07
2.3896e-06
-2.2851e-07
-4.0173e-07
4.1633e-07
-2.573e-07
-4.014e-07
-2.2238e-06
7.6858e-06
-1.3268e-06
-4.1353e-06
-6.6859e-06
3.1742e-07
-2.5319e-06
6.3207e-06
3.8969e-06
-8.1975e-06
-1.0205e-06
-3.356e-06
-1.2942e-06
-6.0366e-07
-2.358e-06
-9.1954e-06
2.7985e-06
2.2281e-06
-3.3901e-06
-5.6238e-08
3.4463e-06
-1.9068e-05
1.332e-05
-1.2401e-07
6.777e-08
-2.1552e-06
6.7491e-08
1.9637e-06
5.1089e-07
7.7538e-06
-1.3812e-06
2.6168e-07
-9.0224e-07
6.6194e-06
2.0366e-06
1.2313e-05
-2.591e-07
-1.3435e-05
1.9525e-06
9.4578e-06
-3.0744e-06
-4.6467e-07
9.0704e-07
2.632e-06
-1.3408e-07
-2.6787e-06
1.3405e-06
4.8142e-06
5.2848e-06
2.6891e-06
-5.2869e-06
-2.687e-06
7.1785e-06
6.8425e-07
-2.5779e-06
3.0734e-06
-7.0835e-07
3.2396e-07
-2.8029e-06
4.321e-06
1.5553e-06
4.9487e-06
-5.7326e-07
-2.5736e-07
9.9179e-08
-5.4077e-06
9.8562e-06
-4.7059e-06
-1.7438e-06
-3.0876e-06
6.6905e-06
4.0494e-06
-8.8366e-07
6.589e-06
1.0157e-07
-4.6498e-06
2.8233e-06
-6.4039e-07
-2.1592e-06
1.5847e-06
2.3126e-06
2.012e-06
-4.7535e-06
-5.1335e-06
-6.7617e-06
-2.8354e-07
-2.6582e-07
7.3111e-06
-1.7877e-06
-7.9254e-06
2.9513e-06
4.0404e-06
-4.0852e-06
-1.7429e-06
3.0082e-06
7.4858e-07
-1.5769e-06
2.4252e-06
5.0838e-09
-8.5335e-07
2.9051e-06
-3.8847e-06
-5.9754e-07
9.9269e-07
2.7325e-06
-1.3001e-06
-6.7527e-06
1.065e-05
-3.7477e-06
2.4374e-06
-1.1263e-07
1.4229e-06
1.0281e-06
-4.9818e-06
2.357e-06
1.8351e-06
-3.164e-06
-9.674e-07
2.5047e-07
3.074e-06
3.4133e-07
1.1287e-06
-5.5394e-07
-4.2641e-06
1.451e-06
3.3671e-06
-5.3388e-06
7.389e-07
4.046e-06
-6.6483e-06
2.998e-06
-6.1381e-07
1.1502e-07
-1.302e-05
6.2565e-06
-1.1783e-05
6.5593e-06
-2.1153e-05
9.078e-08
9.2789e-06
1.6521e-05
-2.0743e-05
-1.693e-05
3.235e-06
-2.195e-09
1.345e-07
2.9268e-06
-3.5468e-06
6.1782e-07
3.5368e-07
1.209e-06
1.364e-06
2.7614e-06
-1.4113e-07
-2.2667e-06
-2.3195e-06
2.3224e-06
2.7585e-06
-9.9613e-07
-1.1426e-07
-6.6122e-09
6.0299e-07
-6.7304e-07
-7.0129e-06
-2.0457e-06
2.3056e-06
-6.0144e-06
-1.0684e-06
6.9606e-08
-9.1135e-06
7.829e-07
6.2849e-06
-2.2761e-06
-8.8987e-06
2.0613e-06
-7.4001e-06
-8.906e-07
-2.3193e-07
2.3096e-07
9.6747e-10
-1.3891e-06
1.9572e-06
-8.0006e-07
-6.9599e-07
-4.4268e-07
1.3696e-06
2.2076e-06
-4.2929e-06
9.4826e-07
-1.472e-06
2.4809e-06
4.6255e-10
4.4297e-08
9.0347e-07
1.4213e-09
1.8315e-06
1.1373e-06
8.7217e-07
-3.841e-06
1.1564e-06
6.6027e-07
1.779e-07
-8.3816e-07
1.4899e-06
-2.1547e-06
1.4596e-06
-8.0913e-07
1.5042e-06
1.5939e-06
1.8334e-06
8.9372e-07
1.6924e-06
-3.838e-08
-9.8718e-08
1.4052e-06
1.8811e-06
7.351e-07
2.5579e-06
-5.7987e-07
-5.1391e-08
-4.8639e-07
7.8543e-07
-7.1316e-07
1.573e-06
-8.5986e-07
1.812e-07
2.1954e-09
-8.967e-07
9.8412e-08
1.6552e-06
3.6584e-07
-1.4168e-06
1.1493e-06
-1.6439e-06
1.4542e-06
5.5546e-07
1.1089e-08
3.3855e-08
-2.2766e-08
1.0335e-06
4.1453e-07
6.0713e-09
1.0732e-06
-5.9034e-09
2.7399e-08
-2.5661e-08
4.6323e-09
1.5361e-06
7.4747e-07
-2.1838e-06
-9.9701e-08
-1.4697e-06
-2.532e-06
5.5376e-06
1.8317e-06
-9.5587e-07
-1.2846e-07
-2.3654e-06
2.7271e-06
-2.3426e-06
-2.1441e-07
3.7305e-07
7.9181e-07
2.7825e-08
-3.1622e-06
1.711e-06
-2.4431e-06
1.5238e-06
1.1746e-06
3.219e-07
-1.0504e-06
-1.4539e-06
-4.847e-06
4.8515e-06
-4.4844e-09
2.7888e-07
-1.0286e-07
-5.0231e-06
3.6944e-06
-5.1913e-07
-2.8965e-06
6.3409e-06
2.2048e-06
9.0294e-07
-1.7214e-06
1.3372e-07
6.8474e-07
-5.2312e-07
4.008e-07
1.0252e-06
-1.6661e-06
7.0339e-07
4.3959e-07
-2.6635e-06
-7.2403e-07
3.37e-09
1.932e-06
-1.4709e-06
-4.6447e-07
2.6132e-09
7.3383e-10
-9.474e-10
5.2577e-07
-5.7418e-07
4.9358e-08
1.6527e-09
-1.8045e-09
4.2031e-07
-5.2162e-07
1.0311e-07
-1.5852e-10
-2.763e-10
-1.8512e-08
3.7068e-08
-1.828e-08
-4.4199e-10
1.5981e-07
2.4196e-07
9.9043e-08
-9.492e-08
-9.7966e-08
1.4558e-06
2.7183e-06
-2.3079e-06
-4.4992e-06
4.0888e-06
1.0313e-09
6.7487e-07
-8.1187e-06
-1.8673e-06
-5.3741e-06
4.4478e-06
2.7936e-06
-4.6054e-06
1.821e-06
9.1708e-07
-3.1261e-06
-3.0464e-06
7.9841e-07
-2.6121e-06
2.0542e-06
-2.5682e-06
1e-05
-1.0275e-06
-1.1585e-05
-9.4628e-07
9.9948e-09
-2.5612e-06
1.1888e-06
2.8877e-06
-2.5216e-06
-1.555e-06
1.1843e-06
4.4079e-09
-9.6992e-07
2.1531e-06
1.15e-09
1.4009e-06
5.1673e-07
-8.0373e-07
-7.5217e-07
2.1202e-06
-5.6431e-07
-1.3822e-06
2.2123e-06
-1.6338e-06
-9.2383e-07
-1.3065e-06
1.4782e-06
-3.0093e-06
7.0323e-07
3.1029e-06
-8.1665e-07
-1.8652e-06
-4.2105e-07
-6.8973e-07
2.4861e-06
3.2904e-06
-1.2238e-06
-2.8833e-06
6.2569e-07
-2.5388e-06
-2.3356e-06
1.5234e-07
-1.5237e-07
3.1714e-11
-5.4429e-07
2.6627e-07
4.3037e-07
-4.9403e-07
2.8477e-07
-3.3503e-07
-3.0993e-07
-3.3647e-07
6.0896e-07
-7.2872e-08
6.1527e-08
-5.9761e-07
-1.3757e-07
-1.4722e-07
8.9375e-07
7.2818e-08
-9.4648e-08
-1.1573e-07
-5.4417e-11
1.4281e-06
-1.0875e-06
-9.1448e-07
5.7386e-07
-1.6583e-06
8.6959e-07
2.2168e-06
-1.2914e-06
-3.8566e-07
1.8764e-08
-1.559e-06
-8.1991e-07
-2.378e-08
-1.7622e-06
1.3889e-06
3.9714e-07
-1.7914e-06
3.1881e-07
1.4488e-06
-8.1348e-07
4.2049e-07
-1.3984e-06
-2.263e-06
-3.1275e-07
-1.6788e-05
3.0618e-06
-7.9475e-07
1.4521e-05
-7.9952e-06
-1.08e-05
2.0075e-06
-1.4741e-05
2.5733e-05
-7.93e-06
4.5282e-06
-2.7265e-05
-5.4629e-06
1.3348e-05
-8.0838e-06
1.9909e-07
4.0208e-06
-2.0284e-05
3.1819e-06
9.3707e-06
1.4094e-07
-4.808e-06
-2.0546e-06
6.7217e-06
4.1444e-08
9.9588e-08
-4.8428e-06
-6.2457e-07
5.5088e-06
-6.0339e-06
-3.6168e-06
1.6135e-07
4.8933e-07
-1.1195e-07
-5.3873e-07
1.1603e-06
4.1189e-08
-1.0402e-06
1.18e-06
-2.3066e-07
2.1104e-07
-4.3417e-07
9.1948e-07
6.9466e-07
5.344e-08
1.7188e-09
-5.5331e-08
-3.2773e-07
4.2425e-07
-2.0867e-08
-3.4902e-07
2.5794e-07
-1.8995e-07
1.1375e-07
2.4585e-06
1.786e-06
-3.0728e-06
-1.1717e-06
2.4255e-06
-1.8427e-06
1.8757e-06
-1.1804e-06
2.6384e-07
9.967e-07
-3.9105e-07
7.3659e-07
-1.3078e-06
5.2162e-07
4.9611e-08
-2.6187e-06
2.5629e-06
7.9255e-07
-4.6772e-07
6.4754e-07
-2.5254e-06
7.5003e-07
-2.7218e-06
-2.3468e-06
2.1656e-06
2.9029e-06
-2.7612e-06
3.9712e-08
-1.4598e-07
-2.0935e-06
-1.7006e-07
4.5314e-08
2.1105e-07
-5.1709e-08
-2.0466e-07
4.5407e-08
-9.4673e-11
3.9699e-07
-3.5417e-07
2.5869e-09
-3.3325e-08
6.4136e-07
-5.6915e-08
4.3281e-07
-5.5083e-07
1.7494e-07
1.8428e-07
3.0696e-08
-2.719e-07
-3.3693e-07
-3.6492e-07
1.1347e-06
-4.3798e-07
2.8533e-07
-8.4492e-06
4.5973e-05
-2.8404e-05
4.1725e-05
-2.6192e-05
-2.3983e-05
7.929e-06
9.5324e-06
2.4264e-05
2.6888e-05
2.7014e-05
-3.3325e-06
2.221e-06
6.0303e-07
5.0845e-07
2.4656e-06
-3.0714e-06
-2.7268e-06
3.268e-06
-6.3521e-07
-1.6721e-07
2.321e-06
3.168e-06
2.4199e-05
1.6606e-05
-1.5073e-05
1.662e-05
-7.6599e-06
1.5239e-05
2.4603e-05
-6.071e-06
-1.9257e-06
1.5138e-05
2.6085e-05
-7.5972e-06
2.6371e-05
-3.6355e-06
-2.4422e-05
2.1101e-05
-4.2761e-06
-9.6446e-06
-2.0849e-05
1.1525e-06
-1.1563e-06
3.7936e-09
-3.9381e-06
3.1847e-06
1.9059e-06
7.6502e-07
-2.6054e-06
-2.0977e-06
-3.8788e-07
-3.3944e-09
-4.2797e-07
3.6037e-07
2.3804e-07
-1.7043e-07
-4.2418e-07
-3.7889e-09
1.9527e-07
-2.0618e-07
-4.1326e-07
6.8572e-07
-1.3008e-07
-1.019e-06
1.6368e-06
1.182e-06
1.3361e-06
-3.5371e-06
1.7316e-07
1.7956e-06
-7.8681e-07
1.3166e-07
1.6783e-06
1.2965e-06
2.1501e-06
2.0396e-06
-5.278e-07
-2.1529e-07
1.8919e-06
1.2099e-06
-9.517e-07
2.8966e-06
1.0348e-06
3.18e-06
-2.3056e-06
3.3557e-07
-4.1913e-06
3.221e-06
3.8669e-06
-2.9669e-06
1.9555e-06
1.6085e-06
-1.8687e-06
-2.0456e-06
-3.3183e-06
3.9751e-06
3.357e-07
6.9013e-07
4.7335e-08
-1.9381e-06
-2.0671e-06
4.341e-06
-2.393e-07
-1.2843e-06
1.4833e-06
-2.3438e-06
-9.0509e-07
1.7656e-06
-2.4033e-07
-1.9782e-06
3.7021e-06
7.3252e-06
-7.3931e-06
-1.7232e-07
2.3192e-06
3.1374e-06
2.8892e-06
-3.3062e-06
-4.6769e-06
5.0939e-06
2.2415e-06
5.0973e-06
-2.4946e-05
1.6543e-05
1.0696e-05
-3.357e-06
2.1898e-06
-1.426e-05
9.7203e-07
-1.783e-07
-2.3171e-06
-2.7393e-06
3.8011e-06
1.2552e-06
-2.3626e-06
4.5542e-08
9.8412e-07
-2.6566e-06
2.5673e-07
-2.0119e-06
-5.612e-11
-3.5543e-09
3.6104e-09
-2.1454e-09
2.0892e-09
3.3865e-07
-1.6027e-06
1.2619e-06
1.2695e-06
-9.3442e-07
1.5276e-05
6.1704e-06
-4.0181e-06
-1.7429e-05
1.961e-06
1.0786e-05
2.5291e-06
-9.7493e-06
4.3102e-06
5.3104e-07
-4.11e-06
2.9791e-07
4.4225e-06
8.7862e-07
-5.5991e-06
-6.339e-08
-1.4447e-07
5.0611e-07
6.3673e-07
-1.4702e-06
7.7013e-07
1.6008e-05
-1.0948e-05
1.5313e-05
-7.148e-06
-7.6842e-06
-4.8135e-07
-6.5235e-06
2.1685e-05
1.5197e-07
1.0363e-05
-1.2339e-05
-5.1724e-06
-9.5431e-06
1.3383e-05
-6.9513e-06
1.4176e-05
-6.3123e-06
-9.1218e-07
-1.4877e-05
-4.4133e-06
9.4925e-06
-4.8598e-06
-2.9779e-06
-6.2387e-07
7.419e-07
2.8599e-06
-4.8938e-07
-1.6189e-06
-3.3251e-06
5.64e-09
2.6956e-06
-2.3319e-06
-1.4826e-06
-9.1004e-06
5.3588e-06
-3.5509e-06
7.2925e-06
9.385e-08
-6.0076e-06
-3.1862e-06
-1.4011e-05
4.2629e-06
1.6639e-06
-5.4918e-06
1.5114e-05
-9.5093e-08
-8.806e-07
1.8888e-07
-9.4015e-08
-1.0778e-09
2.7911e-07
-3.0301e-07
-7.0112e-08
-4.9687e-07
-1.0462e-07
-5.6562e-06
-1.9715e-06
4.1724e-06
3.4553e-06
-3.0207e-06
-7.1186e-08
-2.5642e-06
6.7154e-06
-2.5779e-06
-7.1582e-06
5.15e-06
-4.0596e-07
2.1717e-07
8.4803e-07
-3.7949e-07
2.766e-06
-1.5336e-06
-1.0152e-06
8.4932e-07
-1.2883e-09
1.5638e-06
2.0515e-06
2.102e-06
-1.6062e-06
-5.0854e-07
1.2832e-08
-1.372e-06
1.3806e-06
2.0934e-06
1.7262e-06
-2.215e-06
-1.1175e-06
-1.0452e-07
4.5875e-07
1.5632e-06
6.0418e-07
-9.8085e-07
-1.1865e-06
3.3677e-07
1.1219e-06
-4.6459e-07
-1.1462e-06
-2.4409e-06
9.164e-07
4.0697e-07
-1.7954e-06
-1.1101e-06
4.9059e-07
1.8918e-06
-2.2546e-06
-1.2773e-07
4.97e-07
-6.3952e-09
-1.7299e-06
8.216e-07
6.2721e-07
-4.6535e-07
-1.7098e-06
3.1583e-08
-4.8584e-11
1.6783e-06
-3.4478e-07
-8.2191e-07
-5.4314e-07
-2.7032e-08
-3.1717e-07
-5.731e-10
-8.8548e-07
3.0125e-06
-2.822e-07
-1.8448e-06
1.0639e-06
-3.116e-07
-1.6377e-06
1.4414e-06
-7.4246e-07
-1.7409e-06
1.5583e-06
1.624e-06
3.5713e-07
-1.9381e-06
1.952e-06
-1.3887e-08
1.5621e-06
-2.3819e-06
-1.1184e-06
-1.5349e-06
-1.2538e-07
3.2223e-06
3.9682e-07
2.0142e-08
3.3786e-06
-2.5497e-06
7.6731e-06
-8.502e-06
-2.1302e-06
-7.3954e-06
2.4256e-06
9.845e-07
-5.9598e-06
5.7663e-06
-5.4709e-06
4.4979e-06
-3.6223e-06
4.7316e-06
-5.6073e-06
-3.3029e-06
9.4914e-06
-1.6905e-06
2.0067e-06
-4.5375e-06
-1.0915e-06
-2.458e-06
1.1617e-06
1.8703e-06
-1.192e-07
-1.3217e-06
-4.294e-07
-5.654e-07
1.983e-06
4.5266e-07
3.3728e-06
-2.6185e-06
-8.7343e-07
-1.3314e-07
2.9405e-06
2.8286e-06
4.2348e-07
-1.6287e-06
-1.6235e-06
3.6362e-07
-9.892e-07
-1.2059e-06
-2.7808e-06
1.7947e-06
1.1268e-07
-2.4876e-06
-1.2824e-06
-1.7058e-06
1.5609e-06
-4.3033e-07
1.0818e-07
-1.3837e-06
-2.8511e-07
-1.7739e-06
6.0819e-07
-1.1582e-06
-1.3421e-07
6.8423e-07
1.7019e-06
4.672e-07
-9.1607e-07
-1.3397e-07
4.6733e-07
1.8612e-07
1.8326e-06
4.4723e-07
1.4983e-06
1.0953e-07
-6.4718e-07
9.8489e-07
-3.9604e-07
-5.1839e-07
1.024e-06
-1.3643e-06
1.1544e-06
-5.1829e-07
-1.101e-06
9.7207e-07
5.8046e-07
-1.4344e-06
3.3565e-07
9.3836e-07
-8.7629e-07
6.8158e-07
-2.275e-06
-5.9873e-07
2.1921e-06
-1.6466e-06
2.2826e-06
4.5671e-08
1.3753e-07
-4.295e-07
-1.3404e-06
-1.6874e-07
1.33e-06
-1.3393e-06
9.2409e-09
-3.9632e-06
3.3158e-06
1.9774e-06
9.0419e-07
-1.0308e-06
-3.8367e-06
-3.8361e-08
-3.4761e-06
2.5541e-08
2.4962e-06
9.5431e-07
6.704e-07
-2.1072e-06
-2.0393e-06
2.2957e-06
-4.9752e-07
-1.1278e-06
2.8104e-07
2.0402e-06
-2.0722e-07
1.711e-07
-2.074e-07
1.7595e-10
-3.581e-07
-3.4681e-07
-2.447e-06
-1.5519e-06
2.1888e-07
3.78e-06
-1.4462e-06
4.5172e-07
-1.4525e-06
-1.8338e-06
1.1028e-07
1.7165e-07
-9.8168e-07
-2.2984e-06
1.013e-06
-2.2541e-06
1.0318e-06
2.0937e-07
-2.3446e-06
7.0552e-07
2.652e-06
4.745e-07
-1.3142e-06
-1.4145e-06
-6.3898e-07
-1.2311e-06
-3.221e-06
-9.8976e-07
2.4683e-06
-4.832e-06
-2.3657e-06
-3.5633e-06
-2.4262e-06
9.0471e-08
-1.2827e-06
1.54e-06
-2.6835e-06
2.5358e-06
1.1966e-06
-5.0151e-06
4.1625e-06
-3.9924e-06
3.4519e-06
5.4201e-07
-4.6986e-06
7.0467e-07
3.5187e-06
-6.6621e-08
-2.2865e-06
-2.6861e-06
3.5165e-06
-2.2843e-06
-3.4221e-08
1.173e-06
-3.317e-06
-1.4916e-06
1.5187e-06
-2.7134e-08
-2.9063e-06
5.0981e-07
-2.9317e-06
2.4723e-06
-5.6153e-07
1.9031e-06
-1.2579e-06
-8.3716e-08
1.3146e-06
-4.0604e-07
-1.4701e-06
-1.4913e-07
1.1989e-06
2.649e-07
1.4689e-06
5.7473e-07
-1.602e-06
1.346e-06
-2.5295e-06
4.2431e-07
2.6799e-06
4.057e-06
-2.9073e-06
-2.7517e-06
-4.7034e-07
1.9978e-06
6.2011e-06
-1.4566e-06
-4.494e-06
2.2781e-06
3.4527e-06
-4.0226e-06
7.7919e-07
-4.5786e-06
-6.9467e-07
4.0693e-06
-8.0743e-08
-3.2094e-06
2.5446e-06
3.8028e-06
2.3474e-06
-3.0312e-10
1.4858e-10
1.5453e-10
3.6671e-08
-3.6907e-08
-6.6721e-11
3.0153e-10
7.9006e-08
-4.2636e-08
4.5178e-10
3.0238e-08
4.577e-08
-4.7716e-08
-2.8292e-08
3.0233e-08
4.5442e-12
-5.1267e-07
5.1001e-07
3.289e-08
6.0695e-08
-5.2759e-07
7.5473e-07
6.4803e-07
-3.3201e-06
1.9173e-06
5.6185e-07
-2.5951e-06
2.7879e-06
-9.2917e-07
-5.3223e-07
2.1095e-06
-5.3736e-07
-7.197e-07
7.1965e-07
4.2781e-11
5.7963e-07
-5.6191e-07
-7.3742e-07
-2.5719e-06
5.4036e-08
1.9243e-06
5.9358e-07
-1.0988e-06
-8.9354e-07
-2.4004e-06
5.407e-07
1.9137e-06
-1.5883e-06
-1.9109e-06
1.3027e-06
1.3412e-06
2.4948e-06
-3.6202e-06
1.5637e-06
-4.514e-07
1.3825e-06
2.7117e-06
1.5475e-06
-2.842e-06
-2.5521e-06
2.4025e-06
2.9916e-06
-3.2684e-06
-2.0878e-07
4.5968e-06
-1.6752e-06
-1.495e-06
-1.4266e-06
2.1994e-06
-1.5464e-07
-3.0249e-06
-1.9188e-06
-9.3866e-06
-1.9528e-05
1.7192e-05
1.1723e-05
-3.3222e-05
2.0479e-05
3.3556e-06
1.5495e-05
-3.2366e-05
-1.6351e-05
-8.7103e-06
4.6768e-06
-5.5625e-06
-1.0564e-05
1.5969e-05
1.5808e-07
-8.8379e-06
9.9413e-06
-6.666e-06
3.1397e-06
4.2666e-06
-1.6244e-05
6.2652e-06
-1.369e-05
-1.4905e-06
-9.0221e-06
1.8651e-06
8.6475e-06
-1.5161e-05
5.5294e-06
8.1405e-06
-1.9152e-05
4.6965e-06
5.4336e-06
3.8095e-06
-3.8123e-05
-2.8196e-06
1.8341e-06
1.6964e-06
3.6411e-09
-3.3855e-06
2.764e-06
-2.9206e-05
2.9828e-05
-2.8742e-06
-5.1102e-07
-1.2263e-06
-1.6479e-06
1.8061e-05
-4.6176e-06
-1.467e-05
2.6783e-05
-5.9574e-06
-4.1589e-06
4.1468e-06
1.2039e-08
6.5603e-06
-3.7286e-06
-6.9906e-06
1.5935e-05
-4.2913e-06
-5.0834e-06
1.7679e-06
8.0446e-06
6.1224e-06
1.206e-08
5.9025e-06
-2.0362e-05
-8.307e-06
-2.84e-05
6.6633e-06
4.8067e-06
-1.2258e-05
-1.3848e-05
-2.294e-06
-3.0755e-05
9.3322e-07
-6.8592e-07
-4.6423e-07
2.1693e-07
3.3415e-07
4.6485e-07
1.1224e-06
3.6732e-08
-7.004e-07
4.1638e-07
-1.7184e-07
-3.3016e-07
-4.6994e-07
2.8682e-06
-2.2017e-06
4.0335e-08
-7.0687e-07
5.0135e-06
7.7662e-08
-5.1343e-07
-1.7892e-06
-2.7243e-06
-1.515e-06
6.0285e-06
-2.6832e-06
2.9651e-06
-2.0712e-06
-1.6664e-06
-4.6314e-07
-5.5357e-07
-8.5693e-07
1.735e-06
-2.3729e-06
2.7835e-06
-8.7381e-07
9.8845e-07
-4.2182e-06
-3.1511e-06
2.1619e-06
6.3087e-11
-2.3367e-10
1.7058e-10
-4.7964e-11
1.1105e-10
1.6662e-06
-2.3662e-06
1.9411e-07
-6.0599e-07
-1.3221e-06
-9.7651e-07
-6.7655e-08
-1.4593e-06
-4.6915e-07
3.8729e-07
-2.1374e-08
-3.6591e-07
-5.8934e-07
-1.8197e-06
1.7303e-06
-8.2028e-07
-4.4625e-07
-3.1819e-08
1.2983e-06
-1.4562e-06
-1.7116e-06
2.3475e-06
1.7128e-06
2.5439e-06
-5.713e-06
1.9699e-06
-3.7345e-06
2.504e-06
1.8e-07
3.9538e-06
-2.1512e-06
-1.1544e-05
1.1211e-05
-4.0307e-07
7.3625e-07
-6.9825e-06
3.81e-06
5.6582e-06
-5.455e-06
-7.2902e-07
6.8397e-06
-6.5575e-07
-4.0885e-06
-1.8495e-06
4.8294e-07
4.5262e-07
6.1294e-06
-1.6224e-06
4.8514e-07
1.8544e-06
3.3321e-07
-2.6994e-06
-2.6821e-06
9.9471e-07
4.3868e-06
-3.3919e-06
-2.2789e-06
2.9714e-06
-2.4668e-06
2.3725e-07
-2.8506e-06
4.7767e-09
1.6772e-06
6.2784e-07
-2.3098e-06
1.6219e-06
-2.1832e-06
5.6605e-07
1.0123e-07
1.2536e-06
3.2238e-07
4.6525e-07
2.4301e-08
2.7833e-06
1.1566e-06
-4.6252e-07
-9.2084e-07
2.2676e-07
-7.01e-07
2.7966e-06
-8.1147e-07
-2.4476e-06
2.2437e-06
-1.4817e-07
3.5384e-06
3.5189e-07
1.0584e-06
2.543e-06
1.8891e-06
-6.5997e-07
2.0722e-06
-1.587e-07
6.3698e-07
-9.7457e-07
1.314e-06
-1.071e-06
-2.7306e-06
3.4074e-06
1.4814e-07
-2.2416e-06
4.225e-06
9.7712e-07
-2.0402e-06
1.2127e-06
1.516e-06
-6.8846e-07
1.9006e-06
-2.9691e-06
-9.717e-07
-2.3286e-06
2.7511e-06
7.9018e-07
-8.4911e-07
1.0941e-05
-9.6595e-06
-1.6848e-06
5.9653e-06
5e-06
1.267e-06
-2.5817e-06
-2.5189e-08
2.2356e-06
-1.8141e-06
-7.6308e-07
3.3123e-06
1.8106e-06
-1.0817e-06
3.566e-07
-1.4588e-06
1.7391e-06
-2.6548e-07
1.0426e-06
-7.2108e-07
-1.5668e-07
-8.2242e-07
2.0435e-06
-7.2248e-07
-1.2626e-06
-5.8429e-08
-4.8623e-07
2.242e-06
2.8771e-07
2.4463e-06
-2.2769e-06
-8.9187e-07
-1.762e-07
2.1363e-06
-2.7419e-06
9.068e-06
-1.8498e-06
-4.4763e-06
8.0944e-06
-1.0094e-05
-7.4246e-07
-3.3504e-06
2.4468e-06
9.9717e-06
3.1223e-06
1.6217e-06
1.4491e-08
2.5955e-08
9.2156e-08
-2.7722e-06
4.6419e-06
2.3553e-06
3.4255e-06
-2.1486e-06
-1.1288e-06
6.1964e-07
3.3672e-08
1.0656e-06
3.2123e-07
-4.2303e-06
-5.7179e-07
7.0961e-07
4.0925e-06
-2.0826e-07
-2.4678e-07
-3.7753e-06
-3.5484e-06
2.7678e-06
-3.3395e-06
-4.1711e-07
2.2705e-06
-6.4057e-06
-1.8796e-06
-8.748e-08
-1.0309e-06
-5.2762e-08
-8.6034e-07
8.2549e-07
-1.0945e-06
2.019e-06
2.2003e-06
-3.3478e-06
4.3303e-06
7.7261e-07
4.8384e-06
1.5841e-06
3.6891e-06
3.34e-06
1.516e-06
3.7571e-06
1.4139e-05
-1.2648e-05
-3.0095e-08
-1.4606e-06
-9.1971e-06
1.889e-05
4.4455e-06
1.6725e-05
-1.385e-05
-1.5524e-05
-9.2771e-07
8.4556e-06
2.7586e-06
-3.0302e-06
7.9624e-06
2.2126e-07
-8.0015e-07
-7.3835e-06
3.2622e-06
2.8206e-06
-1.3461e-06
4.5239e-06
5.7047e-06
5.0045e-06
-9.7967e-06
-9.1252e-07
2.1498e-06
5.7551e-06
2.4858e-06
1.628e-06
3.4602e-06
1.1753e-06
-5.266e-06
-5.8217e-06
6.0565e-06
-2.3412e-06
-3.5926e-06
2.519e-06
-9.9297e-06
2.3224e-06
2.9947e-06
-4.7477e-07
-3.3201e-06
1.9199e-07
1.9135e-06
8.8916e-07
1.2363e-06
2.2179e-06
-2.6297e-06
8.899e-07
3.0803e-06
1.5699e-06
-2.163e-06
1.5497e-06
-3.7791e-06
-3.5229e-07
-1.619e-06
-7.0338e-06
1.2425e-06
2.1987e-06
-3.3771e-06
-2.8583e-06
-5.891e-06
-7.4157e-06
1.2053e-05
3.7504e-07
1.2683e-06
1.8092e-05
-7.8376e-06
-1.1675e-05
1.4205e-06
-4.5052e-06
1.1518e-05
1.1079e-05
1.9659e-05
-2.8282e-05
7.8494e-07
1.2123e-05
-3.2425e-07
-1.1989e-06
1.3489e-07
1.3883e-06
-1.524e-06
-2.4073e-07
1.4405e-06
-9.9735e-07
-3.5639e-07
1.5483e-07
-1.2851e-06
-1.0852e-06
8.6248e-07
7.2749e-07
-3.5243e-06
4.1469e-06
5.8275e-07
7.3231e-06
1.5139e-06
4.5479e-06
3.8766e-06
6.9288e-06
-1.0223e-05
9.8693e-07
4.4035e-06
4.1504e-06
9.5315e-07
-4.2315e-06
5.8216e-06
-3.1159e-06
-2.6403e-08
1.8378e-06
1.3045e-06
-1.3621e-06
-2.142e-07
-1.5397e-06
-2.4365e-06
1.5047e-07
2.2595e-06
-3.3875e-07
7.7712e-07
-1.8511e-06
-8.8781e-07
1.9618e-06
8.7047e-07
1.1679e-06
-1.2614e-06
4.0388e-06
1.5314e-06
-3.7493e-06
6.5927e-07
5.2146e-06
6.7946e-06
4.9181e-07
-1.1535e-08
-4.8027e-07
-1.3873e-07
1.6214e-07
4.6839e-07
1.1328e-06
-1.144e-06
-2.823e-10
5.241e-07
-1.3283e-08
2.7214e-06
-1.3908e-06
7.2892e-07
1.4897e-06
2.1425e-06
1.549e-06
-5.2313e-06
4.4547e-06
-1.5833e-06
2.4809e-06
1.8293e-07
-1.4892e-06
2.8602e-06
-4.792e-07
1.8748e-06
9.533e-08
-1.7873e-06
1.3357e-06
3.3992e-06
2.7761e-07
-2.6037e-07
-9.9593e-07
9.256e-08
5.0759e-07
-9.1176e-07
3.9177e-07
5.615e-07
-8.6072e-07
1.122e-06
-1.0124e-06
-3.0266e-07
2.4723e-07
-4.1863e-07
-5.9696e-07
9.8227e-07
-3.4902e-07
-4.7998e-07
4.4452e-07
-3.0962e-06
3.3008e-06
1.6059e-06
-4.6721e-08
-1.1603e-06
-3.0152e-06
9.5756e-07
1.6062e-06
2.2321e-06
-3.6449e-06
-1.6024e-06
-4.4764e-06
2.9101e-06
2.5239e-06
-1.0765e-06
-1.1678e-06
2.2348e-06
3.5757e-07
1.1922e-06
3.9292e-08
4.6946e-08
2.4397e-06
1.5181e-06
-3.6003e-06
1.2696e-07
2.352e-06
-2.2291e-06
1.6791e-06
1.2317e-06
-6.8179e-07
1.9818e-06
-1.9047e-06
-2.3062e-06
-4.923e-07
1.5811e-06
5.9035e-07
1.0808e-06
4.0876e-07
-2.4472e-06
3.6437e-06
3.8454e-07
-1.8321e-06
2.2949e-06
3.9534e-07
-1.1466e-06
2.9125e-06
-4.0964e-06
-6.5087e-07
1.8347e-06
-4.1814e-06
6.6943e-07
6.4246e-06
2.4699e-06
-2.8266e-06
-3.7397e-06
-1.7044e-06
-7.0975e-09
-1.7885e-06
5.724e-07
2.5646e-06
-1.3485e-06
5.436e-07
1.1206e-06
-1.7051e-06
3.2546e-06
-3.1081e-06
1.9466e-06
1.354e-06
3.0329e-07
-1.6825e-06
8.1209e-08
1.2657e-07
1.291e-06
4.0116e-07
1.225e-06
1.4721e-07
1.6905e-06
-1.0772e-06
3.6445e-07
-1.443e-07
3.6012e-06
1.7616e-06
-2.3955e-06
-2.9673e-06
1.9476e-06
2.642e-06
3.132e-06
-1.0538e-06
-3.1656e-07
4.4285e-06
6.5105e-07
-9.1841e-07
2.6891e-06
4.355e-07
4.5513e-06
-4.8518e-06
1.8495e-06
-2.1011e-06
1.9273e-06
4.725e-06
1.552e-06
8.017e-07
1.2452e-06
-5.5578e-07
-6.1303e-07
-7.6371e-08
-2.8083e-07
6.1423e-07
1.103e-06
-3.2868e-07
-1.3301e-06
4.375e-07
3.8469e-07
3.6991e-08
2.313e-07
5.4463e-07
-8.1292e-07
2.8348e-07
-9.8896e-07
-1.7015e-07
6.8621e-07
2.567e-06
1.1228e-06
-3.2904e-07
-3.3607e-06
1.1798e-06
-2.0123e-07
2.3813e-06
9.4131e-08
-1.3527e-06
1.5297e-06
2.0313e-06
-1.8962e-06
1.1725e-06
3.0291e-06
-3.3072e-06
-6.7178e-07
-3.7039e-06
2.2641e-06
1.7308e-06
3.2803e-07
2.2068e-08
-5.2144e-06
5.6713e-06
3.2602e-07
3.5499e-06
-1.6624e-06
2.5109e-06
-4.1754e-06
1.7342e-06
-2.5233e-06
-4.3904e-06
5.1795e-06
4.9037e-06
-2.4307e-06
3.8061e-06
-4.8784e-06
-3.4958e-07
1.7462e-06
-1.5267e-06
2.4064e-06
2.7498e-08
-1.6429e-06
3.8408e-06
3.7286e-06
-8.0741e-07
-2.1726e-06
-9.1222e-07
3.8923e-06
-3.3881e-06
-1.9348e-06
4.5155e-06
2.1281e-07
-2.8581e-06
4.7265e-07
7.8249e-07
-3.9578e-06
-2.7495e-06
-5.0089e-08
2.436e-06
3.6361e-07
-3.8495e-07
1.8765e-07
-2.065e-06
1.7507e-06
2.6425e-07
-2.1372e-06
-3.1275e-07
-2.5469e-06
-3.28e-06
3.6346e-06
2.1923e-06
-5.1492e-06
2.6359e-06
-3.3648e-08
-6.5483e-07
-8.9804e-07
-1.7271e-06
-3.3763e-06
-2.4278e-06
6.7713e-07
2.2637e-06
7.2369e-07
-7.7123e-07
5.9217e-07
1.7523e-06
-3.5153e-07
1.4089e-06
9.4899e-07
-6.0555e-07
2.0792e-07
3.4647e-06
1.7723e-06
-2.2528e-06
3.3024e-06
1.1039e-05
4.8644e-07
-9.4644e-06
9.8548e-07
3.9269e-06
6.1268e-06
7.8969e-06
-5.7825e-06
3.6512e-06
1.404e-06
-1.7446e-06
-4.0356e-06
5.4738e-06
7.6122e-07
-1.2133e-06
-1.4183e-06
1.4418e-06
7.1644e-06
-4.7229e-06
-3.8832e-06
7.9729e-06
-3.9847e-06
-2.5464e-06
3.6146e-06
8.3054e-06
-4.7556e-06
-2.3453e-06
-7.3945e-06
-1.3328e-06
-2.905e-06
1.1776e-05
-7.5378e-06
-5.4992e-06
1.2336e-05
-8.1697e-06
-1.1385e-06
-1.5276e-05
1.351e-05
1.0087e-05
-1.6724e-05
-2.7987e-06
2.749e-06
1.5539e-06
-1.5042e-06
3.5346e-06
-5.1367e-06
-1.8232e-06
-1.4417e-07
4.7164e-06
-2.3794e-06
4.0908e-06
-2.5505e-06
-1.6924e-06
4.0988e-06
-1.9325e-07
2.5808e-06
-4.938e-06
3.7461e-06
-6.3188e-06
-1.9306e-06
1.2516e-06
-1.0463e-06
-1.2686e-06
3.1646e-06
-3.7998e-07
1.8413e-06
-2.8589e-06
-1.3382e-06
8.5282e-08
2.5964e-06
-2.2574e-06
1.6612e-06
-1.3547e-06
-2.2119e-07
2.5263e-07
2.7259e-07
4.6128e-07
1.0945e-06
1.0723e-06
-8.9177e-07
-1.275e-06
7.1645e-07
-5.3796e-09
3.8338e-07
2.8557e-06
-1.5646e-06
1.465e-06
5.9663e-07
-1.6999e-06
1.7451e-06
-1.3172e-06
2.952e-06
2.5814e-07
2.0363e-06
-2.3029e-06
-1.1316e-06
1.3982e-06
-2.7651e-06
3.8892e-06
1.8274e-06
-1.8139e-07
-3.949e-06
1.7043e-06
-2.642e-06
2.9493e-06
-2.4156e-07
-2.52e-06
1.1567e-06
1.6112e-06
2.1665e-06
1.4261e-06
-1.4296e-06
1.3581e-08
6.4476e-07
-2.7145e-07
-1.971e-06
-2.8221e-06
2.7862e-06
-7.1134e-07
-1.1888e-06
7.4297e-07
1.1572e-06
-3.7706e-07
-1.5815e-07
-1.7613e-07
-8.66e-07
-1.8795e-07
-6.4851e-07
-5.9455e-07
-1.0985e-05
4.8184e-06
-6.1597e-07
1.9667e-06
-1.1743e-05
-6.8118e-07
-1.5504e-06
-2.0077e-06
-8.302e-07
1.483e-06
-1.334e-06
1.7056e-06
5.9689e-07
-9.0145e-08
-1.2756e-06
3.1625e-06
-1.4116e-06
3.8315e-06
-1.9857e-07
-2.6481e-06
4.4979e-07
2.0853e-06
1.2964e-06
6.4119e-06
-1.9021e-06
-4.7084e-06
2.7049e-06
4.1568e-06
3.0685e-06
-2.3581e-06
5.2257e-07
-1.233e-06
4.0788e-06
1.6945e-06
-2.5398e-06
-1.7204e-06
1.0987e-06
-9.7486e-08
9.4413e-07
1.1858e-06
-2.1416e-06
-1.4903e-06
-3.892e-06
-1.1138e-06
-1.0212e-06
3.3584e-06
4.1509e-06
8.4751e-06
-9.3429e-06
-3.2832e-06
6.5512e-06
-8.3047e-07
1.3262e-05
1.7639e-06
-6.4219e-06
9.6711e-07
9.4086e-06
7.4838e-06
-1.4385e-05
1.316e-05
-4.7098e-06
7.9965e-06
6.3262e-06
-1.4323e-05
-4.6074e-06
8.6338e-06
-1.1174e-05
7.1479e-06
1.1584e-05
6.4491e-07
-1.2229e-05
-9.0594e-06
1.1154e-06
-6.4414e-06
-9.257e-06
1.5696e-05
-1.5499e-05
-6.1427e-06
-2.3578e-06
9.6153e-06
6.0583e-07
-1.6008e-05
-1.5726e-06
1.24e-05
2.3325e-06
9.5542e-07
2.9896e-07
3.0681e-07
-3.5511e-05
-2.1636e-05
1.5554e-05
4.1593e-05
-4.4199e-06
2.5859e-06
1.3915e-06
1.1407e-05
-4.0008e-07
1.0387e-06
4.0564e-07
-1.4444e-06
-1.1437e-05
2.9431e-05
-2.0187e-05
2.194e-06
4.4011e-06
5.3466e-06
6.9162e-06
-1.6664e-05
-6.0389e-06
1.8719e-05
-8.2792e-06
8.8331e-06
-7.4433e-06
1.2421e-05
1.1e-05
-1.9612e-05
-8.2545e-06
2.3799e-05
-2.1584e-05
2.1987e-05
-8.5078e-06
-7.2037e-06
-6.2751e-06
4.2311e-06
1.5395e-05
2.4801e-05
-3.1722e-06
-2.1044e-05
-5.8517e-07
-3.2671e-05
1.6059e-05
8.1043e-06
-3.4677e-06
-8.7012e-07
-2.8334e-05
-1.9419e-06
-4.1443e-06
8.5658e-06
-2.4796e-06
1.8369e-05
-9.3462e-06
-2.9076e-05
2.0053e-05
-1.518e-05
-2.0447e-07
1.0899e-05
4.4845e-06
5.7884e-06
1.1118e-05
1.813e-06
-4.4117e-05
1.6116e-05
3.3348e-05
1.1212e-06
-2.0416e-05
-1.3072e-05
6.4222e-06
-3.8798e-06
2.3652e-07
-2.7789e-06
4.8919e-07
9.8018e-07
-1.4694e-06
2.2074e-07
-7.0421e-08
-1.5031e-07
-4.9274e-06
2.5025e-06
-7.5365e-06
9.9614e-06
1.8911e-07
-1.8348e-07
-5.6355e-09
1.2178e-06
-6.7686e-06
5.8724e-06
-3.2157e-07
1.0993e-06
-4.0184e-07
-6.9743e-07
1.6529e-05
-2.9171e-05
4.1559e-06
8.4868e-06
1.5253e-05
-1.248e-06
-2.2284e-05
3.5548e-05
-8.394e-05
4.1538e-05
6.8544e-06
1.8611e-05
-1.995e-05
2.3322e-05
-8.9619e-06
-3.0711e-05
-4.3002e-06
5.1717e-06
-2.1679e-06
1.2964e-06
-2.6382e-07
4.5293e-07
1.7988e-06
-2.6755e-06
-1.5787e-05
-1.322e-05
2.8473e-05
-2.0963e-07
-1.4186e-05
4.3857e-06
9.8003e-06
-8.7183e-06
-3.36e-05
2.0601e-06
-5.9607e-06
1.0166e-05
-3.4725e-08
2.6202e-05
-2.6167e-05
-1.3706e-05
-1.4218e-07
-3.6187e-06
4.1079e-06
-3.6535e-06
1.5201e-05
3.1228e-07
-1.5514e-05
4.2958e-06
-8.6683e-09
1.9009e-07
-1.8142e-07
-1.5934e-08
-2.1699e-08
3.7634e-08
6.7719e-06
-6.0874e-07
-1.6499e-06
-4.5133e-06
-5.3442e-06
8.537e-07
1.4603e-06
3.0302e-06
-1.8122e-05
-9.9845e-06
-6.5714e-06
-1.4539e-06
4.612e-09
-2.0547e-08
-2.1977e-07
-2.8561e-05
4.7098e-06
2.4071e-05
2.1993e-06
-1.2191e-06
-1.2695e-06
-5.8869e-06
4.2922e-06
-8.6941e-06
-4.9411e-06
-9.1285e-07
-8.1833e-09
-1.4387e-05
7.4042e-06
2.5352e-05
6.955e-06
1.8371e-06
-2.2703e-07
7.0085e-10
1.2244e-05
-6.6345e-07
2.0074e-05
2.3063e-07
4.0208e-05
-1.0717e-05
2.7471e-07
-2.7401e-07
1.6369e-05
-5.1185e-06
-9.4115e-06
3.7558e-06
-2.3128e-07
-3.3091e-07
-1.03e-05
3.7565e-06
1.7847e-06
2.5044e-05
2.1313e-07
-1.6749e-05
1.6536e-05
8.3184e-07
-1.7447e-06
4.4376e-07
-6.0684e-06
6.0598e-06
4.9884e-06
-2.3367e-06
1.6105e-05
-8.1597e-07
-1.7744e-05
-1.5026e-06
1.4822e-05
-1.0092e-05
3.8884e-06
-3.8838e-06
1.0504e-05
7.7932e-06
-1.4409e-05
1.6044e-05
4.6098e-07
3.9727e-07
-8.5825e-07
-8.6186e-08
1.3044e-06
3.7479e-07
-6.9078e-06
8.2122e-06
8.0775e-07
-4.3295e-07
2.5023e-05
-3.2818e-05
5.0407e-06
2.9443e-05
-3.7377e-06
-2.2902e-06
-2.3415e-05
-2.5008e-05
-8.2672e-06
9.4019e-07
7.327e-06
-1.6043e-05
2.1205e-05
5.0911e-06
2.9444e-06
4.4831e-06
8.4469e-06
2.0871e-06
9.734e-06
1.2964e-05
1.3604e-06
4.286e-06
2.4873e-06
-2.4267e-07
-4.2092e-07
1.948e-07
4.5012e-07
9.5343e-06
3.2124e-05
-1.6849e-05
-1.0783e-06
1.0426e-05
2.6825e-06
-6.3361e-06
3.5678e-08
-4.0883e-06
4.0801e-06
-1.0858e-05
-9.8493e-06
-2.8686e-06
-9.1255e-06
-7.949e-06
6.5865e-06
1.3489e-05
1.3752e-05
3.2433e-06
-8.276e-06
8.5206e-06
-1.1134e-05
1.1446e-05
3.6211e-06
8.4377e-06