/*--------------------------------*- C++ -*----------------------------------*\\
| =========                 |                                                 |
| \\      /  F ield         | OpenFOAM: The Open Source CFD Toolbox           |
|  \\    /   O peration     | Version:  v1706                                 |
|   \\  /    A nd           | Web:      www.OpenFOAM.com                      |
|    \\/     M anipulation  |                                                 |
\\*---------------------------------------------------------------------------*/
FoamFile
{
    version     2.0;
    format      ascii;
    class       volScalarField;
    location    "3";
    object      p;
}
// * * * * * * * * * * * * * * * * * * * * * * * * * * * * * * * * * * * * * //

dimensions      [1 -1 -2 0 0 0 0]


internalField   nonuniform List<scalar>
7155
(
13.4972
15.2639
18.2439
15.4845
31.4657
28.558
33.5741
31.7358
36.592
33.7591
28.5219
23.9745
27.4028
29.1354
28.7307
32.696
32.5981
26.0822
23.9125
26.4771
26.5196
30.9449
30.7971
44.1948
47.3972
42.6616
39.5933
40.7978
19.3351
20.9466
18.9162
18.5531
16.8602
15.989
12.5059
12.2669
12.0127
11.4704
11.69
30.4148
30.3253
28.2409
27.9748
30.4071
29.9138
29.568
29.8966
29.9043
27.8643
26.2319
30.8734
40.0984
38.1274
38.4469
40.0496
35.4738
36.1119
28.7942
30.298
14.236
13.8117
13.8056
13.5447
15.2952
14.1601
14.9406
14.3865
15.2665
16.9398
16.9193
15.9125
14.8764
17.7145
16.0036
12.8997
13.0423
15.3202
32.1883
38.1507
33.0333
38.558
33.6222
39.318
30.4772
41.1343
44.9391
41.7313
41.8732
44.02
34.4937
25.9345
24.2317
27.1382
26.1639
21.5147
23.2583
21.4609
16.3899
16.5438
14.4859
13.9103
15.2642
39.4901
40.9109
36.3629
40.4018
37.3411
33.8164
36.4052
15.6215
18.7432
17.8194
23.7905
26.1936
27.9459
25.152
30.5441
29.71
33.1824
32.0828
13.6222
14.5137
13.3707
12.2446
12.7746
15.3518
14.902
17.4322
19.068
17.5735
18.0212
21.7613
22.4689
34.3081
33.0125
29.4635
27.8665
23.1733
25.0607
29.9069
35.4723
28.6654
28.0845
25.2204
23.7846
24.9276
19.3535
20.1347
19.4273
20.2495
18.389
17.4435
16.4354
18.3703
17.5805
16.4921
15.9137
13.1327
13.8287
12.8937
12.6417
11.8306
12.5535
15.2148
18.3169
39.1295
37.315
35.9343
34.1326
32.0582
33.6197
30.8491
27.6488
27.5087
37.1255
32.3889
35.2337
34.2442
34.7888
33.8222
32.7252
31.9654
33.008
33.7269
32.5655
20.9355
23.2369
20.7894
18.7142
12.8488
11.4189
13.0813
14.9203
14.8283
15.5978
12.2135
12.2637
10.4781
9.332
9.6973
9.9486
10.0942
11.3938
13.5832
41.8796
42.2836
36.0456
15.0304
15.2601
16.9184
18.1065
18.9597
17.5918
17.0457
30.4302
28.5326
25.6696
27.4872
10.826
11.1467
11.2873
11.6311
12.7019
11.7218
13.5092
12.4134
12.7558
7.9279
7.37
8.0348
8.8289
2.8741
2.6931
4.2876
3.6131
4.3494
3.5935
4.3194
4.7619
10.8094
11.1856
12.5135
12.2746
15.8467
17.2171
11.0571
13.4052
19.0386
18.9916
15.9073
19.782
17.3993
18.5606
19.8086
5.5055
5.629
4.6727
3.9559
4.1399
5.4372
5.2717
5.3627
3.1724
1.9213
0.16382
0.51895
23.877
24.2301
28.6804
28.2327
18.5441
18.7882
23.498
23.107
5.38
5.0584
4.8795
4.6974
5.6539
5.4343
5.037
4.8394
1.9534
4.3154
7.8511
4.5563
11.5288
12.2949
10.4754
9.6262
9.0372
9.6823
7.4609
8.0561
11.4482
11.7351
10.8737
17.9404
16.7051
20.7414
22.1085
9.3024
10.3478
9.6101
9.1173
30.4864
30.652
25.9053
25.2865
29.2519
26.8529
25.1114
23.0061
24.8976
23.0677
22.7169
22.7586
22.9792
24.4156
22.4035
24.7378
13.1963
12.5908
16.8593
17.2593
17.7773
17.7099
15.6593
15.3666
16.5242
15.9289
22.0029
22.6463
24.879
23.3901
19.7786
19.9776
22.2189
21.8974
19.1165
20.5228
23.0588
21.3283
12.9123
15.3859
16.852
15.0281
9.6713
10.8035
6.0706
5.9068
7.0855
7.1864
6.8147
2.7809
3.768
3.8258
4.7877
12.7623
14.1215
18.7552
18.3643
15.4661
-0.51994
-0.44826
0.89352
1.0893
20.2454
22.975
21.4568
18.4304
6.2806
6.3881
4.6207
5.0668
7.0295
6.3805
8.0108
7.8364
9.2799
8.0708
8.9723
9.8318
10.7452
4.2614
3.7238
0.75298
2.4896
1.596
3.1451
3.2767
1.8692
7.4567
7.5778
6.7255
5.8962
5.933
28.0397
27.9934
24.4765
24.4339
1.532
0.079734
3.2702
2.5035
5.4728
4.4939
6.2978
5.5081
8.5791
7.5804
8.1755
6.9644
7.6813
6.3569
8.6954
8.5961
9.3881
6.4868
7.3929
8.2474
6.3451
5.6917
7.2658
10.5871
10.1381
9.4917
9.3718
10.343
9.7614
9.4355
9.5867
4.3302
3.1693
6.6234
5.5444
20.6851
20.2543
23.1848
23.7772
3.2282
5.0001
4.9177
3.7236
3.7218
4.3751
5.0903
7.0887
8.1967
7.8774
8.8112
33.6201
32.2458
34.3441
33.0979
37.0249
33.1109
0.62609
1.4781
4.3451
4.3373
1.5836
16.3934
16.9525
16.7127
17.1382
15.054
15.7586
15.6421
15.5938
14.3369
10.8419
10.4205
8.8865
8.9135
10.9607
10.3028
12.6846
12.1783
12.7865
11.6418
13.1845
13.7327
12.8836
11.7293
4.7029
4.9725
4.9132
4.2999
4.027
4.5608
4.4051
3.8975
4.8062
21.2898
20.9404
23.1091
23.4014
11.41
14.7257
10.9813
14.1852
10.507
13.5601
8.9948
6.0682
5.9617
3.5363
7.9452
9.5934
9.3622
8.0742
10.5435
31.5197
33.348
38.1677
36.1496
20.1267
20.5066
20.9911
21.1433
33.2886
33.7641
36.4721
37.2171
34.5619
28.6196
32.659
60.7638
62.9607
67.8612
66.7656
64.7109
23.8581
26.0259
23.4937
21.1945
21.0278
24.4452
25.0948
28.2453
28.5637
9.179
7.1371
7.6733
6.6262
7.0881
9.5117
11.5728
12.7885
11.3875
7.3639
8.5554
11.1156
11.3514
12.1369
12.4406
8.7248
23.0853
21.6287
22.5755
21.4316
22.4543
24.7245
25.1625
28.2753
26.5614
24.9349
11.2258
12.6605
14.2655
12.9543
33.7374
35.9927
30.9227
30.9735
27.7555
20.7139
22.3351
20.8767
25.0673
27.3898
20.7979
22.5851
22.0248
23.7072
13.1675
12.851
12.4591
12.1957
26.388
10.8387
10.3098
11.3917
10.9161
14.4472
12.9608
11.4664
12.7483
9.8403
9.4917
8.2712
13.7286
14.5892
12.5905
13.553
30.7393
27.3576
9.9899
11.2497
28.7318
17.8169
12.2884
12.3477
12.4717
12.1834
12.1992
10.1364
10.3292
9.756
10.8617
10.0358
19.5495
20.7881
19.3553
20.8858
7.762
7.3484
7.4361
9.4111
8.1775
11.2716
9.7624
10.906
9.6112
10.9383
14.1403
13.5564
28.8121
27.7545
26.6216
25.8274
17.5185
16.5283
17.4304
16.485
24.1684
21.7066
26.0731
23.3475
24.0874
30.5812
16.1585
14.5905
15.8611
16.6898
24.9914
27.5304
26.2904
29.3255
15.2251
14.971
16.5338
15.9781
14.4887
13.9785
21.9885
23.3301
12.5753
12.6595
15.7847
17.4101
18.2232
18.4764
30.9602
32.5718
29.2328
35.2589
31.7187
10.7113
10.7522
12.9343
13.3225
13.0607
13.9496
13.7253
16.9476
16.7259
17.555
17.0575
17.7215
16.6785
33.1196
32.2271
33.3991
32.5787
37.8034
36.9785
13.6597
12.9676
14.0731
11.1659
9.4251
12.199
9.8875
35.1047
34.612
32.6296
28.5735
29.1043
35.9728
37.9919
35.9626
37.7195
15.5157
-0.096655
7.1399
7.2807
7.1281
4.5396
6.2187
5.6322
5.9626
6.3143
10.7439
11.6544
6.8832
7.968
6.477
7.5358
11.7992
10.8725
11.6088
10.7711
8.3269
9.5536
5.7073
7.0591
4.7795
5.7681
7.1454
7.1285
6.4505
8.0074
7.4438
8.262
8.9837
8.2129
8.8395
10.8085
9.8187
10.148
9.1509
7.4441
9.6512
11.1207
12.3941
11.5771
10.8991
9.8282
11.5166
10.0795
27.252
26.6572
28.468
8.486
7.6401
9.1228
8.1769
7.2782
7.4728
7.0222
7.231
14.9751
14.0636
12.5448
11.8012
29.6026
29.5625
28.0924
5.8712
4.7294
6.3467
23.0595
20.459
19.7697
14.1772
13.9898
15.0393
9.7373
10.1976
7.804
7.8903
8.2406
7.973
9.5014
9.4381
9.0629
9.8126
9.4345
10.1448
12.6864
12.9152
14.1545
14.3996
5.7485
6.5012
6.1732
4.3438
3.8602
9.1554
6.9858
21.8651
22.1727
23.6167
24.2026
9.4754
6.7421
7.4393
3.0111
1.8082
0.33106
-0.58758
-0.10798
12.8796
14.6087
10.3523
12.3816
4.7947
4.9274
2.8557
2.8216
3.7015
3.7087
3.8785
10.6253
11.7081
13.2696
15.3115
14.9387
10.3636
9.8259
8.7205
8.5988
6.9475
6.3283
6.4853
5.3712
7.4001
6.2754
4.8968
8.7575
8.5348
9.3597
9.1621
9.5276
8.6075
8.3142
7.4407
8.0507
13.0924
13.3861
8.9948
10.3038
10.125
11.1428
18.8883
17.1123
18.7935
-0.20607
0.63551
16.1949
14.8072
14.9269
7.8988
6.7407
7.8921
6.3993
7.2021
6.4622
8.1856
9.8444
8.384
8.9524
7.8457
11.6922
7.4498
8.1126
22.9
23.3826
20.6604
40.1392
41.6663
38.6279
36.4801
40.9953
60.871
47.0057
48.7605
50.4179
52.3204
39.6128
35.0257
47.9625
40.4962
39.2511
42.4051
63.3123
43.8435
49.1982
45.3818
47.8327
37.5047
41.6953
55.2785
56.8926
58.8591
52.7613
53.7026
62.3107
64.371
27.4829
43.0697
47.2222
39.8039
58.0716
67.099
50.3021
17.5884
55.6126
66.5195
67.3251
55.2379
48.2608
54.9017
44.0902
43.0806
18.4755
43.5353
53.9138
50.2281
46.6513
37.9253
52.9185
18.3413
68.8531
28.3808
62.0644
69.254
37.3206
58.2528
42.0618
29.0442
29.9246
31.0658
63.4476
62.1235
35.1103
43.003
63.0754
58.4571
62.1884
24.7792
74.0522
21.2048
67.7521
61.9388
45.3376
50.6369
44.4337
55.7427
53.7121
45.1282
57.4031
68.3885
68.6393
46.1876
52.5033
48.7401
76.2709
41.4266
42.5384
34.2703
51.9684
76.0298
55.0454
48.1635
41.6183
32.1608
31.2892
63.8881
65.1239
29.0114
21.7707
18.7137
62.1419
62.1282
57.1749
56.9918
55.8933
33.9931
53.785
44.878
46.8552
38.2191
59.0094
64.3845
44.4062
45.886
16.9437
40.1201
46.3112
49.3876
58.2863
53.5839
57.0488
58.7082
67.5812
25.7403
55.761
60.8169
19.3906
22.8706
34.8914
49.4606
45.2314
50.3132
45.0426
50.9813
43.4016
54.7853
30.5325
29.9385
26.7747
69.2262
46.8526
34.377
39.2109
59.8419
39.2401
34.8149
23.8169
24.1885
43.3181
52.0298
40.1451
45.5353
37.9542
31.3834
41.9849
39.0858
59.5173
31.8527
42.0624
35.8439
30.1233
26.3916
31.3256
26.5973
28.7376
27.9679
35.7518
37.8921
32.2273
35.3247
37.1638
38.2438
59.9577
24.4498
27.1412
44.2013
37.9954
27.2852
43.4227
20.3074
72.9474
48.2483
49.5519
5.2484
1.7781
4.9585
4.1283
3.4079
10.5943
14.6574
11.3364
15.0032
13.7677
10.7258
13.1045
12.8949
13.0381
12.4593
8.6196
9.7891
11.7056
7.0691
7.0853
6.7508
7.5308
8.6239
7.7484
18.1925
6.0163
10.762
5.2442
1.8818
4.9696
4.2781
10.2343
12.6568
33.3882
31.5122
29.6853
4.6001
9.7401
8.4247
8.7791
8.5414
10.6943
16.6297
14.6226
12.5593
13.8629
15.3101
13.3433
11.2953
10.7259
12.4386
12.3964
22.9763
25.744
20.9235
19.8416
8.3192
15.9236
17.2816
14.7571
10.4714
2.5587
2.4307
3.127
2.3353
11.6408
17.1386
17.4422
19.7839
17.4092
4.0371
7.5692
5.622
6.0253
7.0578
16.0709
18.5769
18.02
11.7661
12.9233
8.536
9.8556
9.9471
11.4004
11.9989
5.2461
-1.9404
-1.3264
-0.10323
1.7426
3.6833
-0.025024
1.8747
8.2388
8.613
7.8714
28.5704
22.67
14.1887
25.6588
23.1219
9.4883
9.0373
9.8523
10.8464
9.2078
9.8265
11.6012
4.7274
3.8758
0.69122
-1.0948
2.2532
3.8583
3.6502
1.998
17.7509
13.1959
25.5123
24.4526
6.3178
-0.41315
3.0648
7.6104
6.699
6.0977
3.8626
3.6966
27.797
24.7247
21.3516
21.5987
20.7965
11.2022
2.7577
2.2465
1.7602
-0.20477
3.5919
2.2923
9.2771
14.1246
14.7461
8.9262
8.8285
9.951
11.6895
12.5462
8.2436
4.4659
8.9615
9.5202
7.7536
8.9478
6.6566
8.0992
27.2498
27.7114
5.8081
3.0979
7.1824
8.3546
6.4547
6.5346
5.5851
5.7782
8.2808
8.8075
13.2694
9.112
9.8467
8.8753
9.6621
11.0682
25.8111
7.7547
13.362
16.2369
17.141
11.385
14.4374
12.4788
15.5381
17.375
12.9325
16.1304
7.751
11.6318
14.9255
12.7553
16.1113
25.5465
21.9586
28.4514
33.6205
8.0161
7.8794
32.7474
31.9891
1.2173
3.0044
14.1701
16.0762
11.4389
13.2518
18.0337
22.8765
13.9396
17.8671
17.2458
17.8772
28.9101
22.6639
8.9439
7.8897
17.8743
20.735
18.0791
17.4178
18.0184
19.1513
15.0803
10.9907
10.2805
6.2233
11.9232
10.0502
11.676
9.8629
21.0283
21.5746
15.9748
24.1712
22.0011
21.9057
20.0041
19.6462
15.4263
11.9896
13.028
17.5158
8.5884
5.2672
10.0815
9.5772
12.8931
10.4726
10.7623
10.6231
10.3665
11.5945
11.409
-0.11505
-0.057814
0.25339
1.2136
-0.38709
12.9696
14.6659
15.3636
7.3719
-0.46915
2.9727
10.3137
12.5808
15.4405
11.5122
11.1074
12.0522
12.6147
13.2618
12.2729
2.0956
4.1277
4.297
6.7577
11.6826
2.676
3.8892
5.6839
4.8562
5.8964
5.2506
6.4562
3.3605
8.8824
7.2068
5.768
5.9828
12.1315
7.465
20.2388
20.3426
26.1409
23.0157
22.7734
22.5638
7.8585
7.9522
13.372
8.2587
8.0394
9.5582
9.5289
10.6699
24.9814
18.7465
23.3228
19.1797
21.5274
21.7287
21.3286
21.2828
14.686
20.7408
9.537
4.7047
9.1071
12.6674
16.4765
14.8797
17.463
14.2958
15.1224
14.5096
15.4079
8.7344
19.3809
38.4609
6.4586
8.0978
6.1232
8.2819
7.8693
6.7207
7.4256
6.7844
31.1194
28.6242
33.9239
36.9526
31.8347
35.066
30.7118
33.6001
29.641
26.0125
34.4646
30.5181
31.9679
29.7144
6.6512
15.6127
19.5863
17.3566
10.1428
14.2745
13.3923
16.6921
31.6375
29.344
12.4864
13.5972
27.8776
-0.20756
1.3714
-0.48273
2.0646
0.61232
6.7346
27.0654
16.5068
11.9134
12.3208
14.3569
25.3504
18.9545
21.9891
19.0999
23.4262
19.7199
21.5444
34.7708
9.2183
12.1795
9.8237
11.0998
30.4869
-1.0876
4.7986
3.9555
1.2958
5.7358
2.3939
5.4191
6.11
5.5026
6.1113
4.8668
5.2672
6.3432
4.6489
5.862
4.1831
5.7463
5.4698
6.4974
6.0237
32.7819
22.3463
29.5098
31.6413
7.7248
11.3752
5.5497
8.4825
8.8726
8.6306
11.973
3.526
9.8215
8.7445
8.1038
8.9653
9.7955
11.7572
13.065
10.2987
9.9028
6.535
6.3521
6.4947
11.7637
8.4303
11.1643
19.049
10.4393
13.513
24.6795
19.3031
28.0122
25.2209
23.8227
19.7004
2.7261
6.8635
4.141
5.7359
5.0696
1.8618
2.3666
-1.6782
0.76443
1.4592
2.699
3.0378
-0.29629
2.9086
2.7535
3.615
3.5938
4.1771
-1.6619
6.3847
-0.32634
2.3952
4.4023
3.5517
5.2009
4.5554
4.854
11.1701
7.595
7.5954
13.2659
11.5409
2.6443
2.1129
4.0027
8.8836
9.983
4.8351
33.0091
26.1899
7.984
0.88725
0.40055
0.1826
3.5563
3.4798
1.426
25.6029
12.8198
1.8603
1.4291
2.1944
2.3398
3.9394
7.5456
4.0824
8.9109
19.3374
22.2339
18.5985
13.2315
19.1566
17.169
6.7325
20.7477
21.4645
18.2201
12.5475
14.817
19.2611
25.4789
29.0932
17.324
22.5604
25.9127
25.8377
20.9434
23.5773
22.2444
24.6669
12.5405
11.1869
18.532
17.0999
25.6182
28.669
29.4072
32.1512
22.3378
25.715
26.7856
29.3007
28.5638
14.2114
14.0115
16.5329
22.4184
24.8893
22.3244
20.5026
22.9093
14.7372
24.3817
13.3508
14.3339
15.5032
17.4684
6.9073
9.1772
19.1235
32.7052
29.5799
24.6588
25.2928
21.2307
23.9964
25.7251
23.9358
25.9763
11.5305
4.7517
18.6778
6.8942
7.5633
12.4031
8.5857
13.5692
3.3633
-0.93698
-0.4976
-0.28377
0.23989
0.97196
2.3957
0.80832
16.8383
19.4783
19.6156
6.4408
6.507
8.2787
6.809
5.5987
6.8287
24.7306
23.8504
30.954
29.3418
11.6589
3.2587
3.8465
13.5346
11.4642
10.9045
7.0783
6.1735
2.8877
6.088
4.2691
5.5086
11.7536
12.0487
3.2018
8.2468
2.9731
9.1635
7.7678
7.6974
5.1868
5.2242
28.6726
21.7948
25.9398
28.2004
24.5941
22.2656
25.6285
28.3488
10.2857
7.7428
14.343
9.8079
11.1456
13.0653
14.1431
19.6888
6.2694
15.7085
15.8166
12.9455
14.5801
11.595
14.0102
20.0276
8.7375
14.0752
12.9328
13.0001
4.905
0.97572
1.1837
2.6485
3.8406
3.9863
2.6501
-1.4353
-1.2625
1.436
4.4418
1.7917
11.1072
14.6249
0.96045
2.9409
10.6319
6.2185
12.5289
9.5273
11.733
15.5605
11.3431
12.9331
21.9893
7.2389
7.4991
6.8787
6.2658
20.2007
25.6501
18.9681
21.549
26.5373
18.1305
17.324
15.1389
15.9547
15.4398
16.2473
13.0162
18.1687
23.487
25.0112
12.7361
17.5064
21.9434
17.3734
21.0999
16.4891
30.4556
37.5006
29.9784
28.4747
31.3458
29.0473
33.7743
31.285
0.9923
-1.1907
2.2415
5.1279
1.4302
4.1357
13.2503
2.6211
2.5071
2.293
5.6636
7.9558
5.6495
3.2724
5.2184
7.1161
5.0857
4.4972
4.5873
5.614
26.0676
8.5473
15.102
9.548
6.138
8.5504
8.0169
10.7433
10.1031
8.0195
6.4407
5.6386
5.2878
6.3898
22.6993
16.4942
14.9296
11.8961
14.2817
8.8942
9.5028
8.7951
6.5816
8.1225
7.4834
8.8368
7.8624
20.728
26.6588
23.0776
24.4404
9.5354
9.9896
3.6577
8.3347
9.9637
7.913
9.124
7.3212
12.5797
2.0374
2.0246
1.9382
7.2318
3.9921
3.5612
1.8211
24.9639
30.6741
27.633
2.3708
16.8433
4.4032
6.0121
5.046
11.7917
24.4644
13.0297
26.1272
22.9079
20.9742
24.4771
18.6069
22.5372
32.1971
26.2599
23.8458
23.227
10.0214
12.2735
11.1741
31.9147
10.1126
9.3701
13.4865
3.7559
3.0191
9.6056
9.2672
8.3125
28.2656
13.9501
23.3882
19.779
11.0117
15.1653
12.4846
20.1606
18.7815
5.3724
0.53492
4.1434
2.4995
7.5764
5.0225
5.4186
5.8937
5.5415
6.0428
16.405
19.5941
-4.8953
7.23
15.9644
10.4005
16.7862
10.3987
6.4867
6.401
0.31168
0.70375
5.9778
2.6699
6.0704
4.6616
19.1599
24.3456
21.8436
16.531
28.8344
31.2618
23.0454
20.4363
17.8333
22.2925
23.3134
21.1758
21.4821
20.1191
20.1317
17.0576
20.7252
10.4022
8.7594
4.0615
7.0717
7.7351
7.216
5.5918
6.841
24.4147
2.2698
5.8607
4.2775
6.0101
5.9027
6.0723
4.638
4.6705
3.0784
2.7722
6.8353
5.0405
4.2781
6.7172
9.3067
6.6984
0.96366
6.898
4.7432
4.5961
6.3696
4.17
5.9031
8.7086
13.7209
10.5618
11.0995
16.0027
10.4862
12.3328
6.4319
9.7487
11.0312
13.8974
11.9344
8.8525
13.9004
10.5229
-0.22791
-0.047023
-0.088545
1.0239
-0.44793
1.1709
6.3495
6.0297
10.5875
9.3846
6.8415
12.7303
15.7379
11.214
9.7702
11.467
11.9003
13.5026
28.518
22.4491
30.8436
25.8854
26.3606
24.6438
27.4493
28.9996
12.2325
7.3502
8.5609
7.4891
7.4652
7.9503
8.977
8.8998
22.3437
24.4891
26.979
30.4565
27.6939
25.346
23.8872
26.3147
18.7708
23.3159
28.5626
25.2433
19.0662
22.8013
16.5857
7.8954
6.3742
3.7923
15.1271
8.093
13.237
19.6341
17.6405
15.1898
17.0607
17.0971
16.275
9.0498
13.7541
16.7176
14.1642
13.9258
5.2194
1.5634
1.9612
7.4564
6.1204
5.4531
3.9527
3.5461
4.6618
14.3603
12.0023
7.547
17.7088
9.6778
23.6337
18.2365
10.823
21.3297
24.9728
18.3568
22.3535
15.5123
19.721
15.1551
10.4342
18.1783
5.4486
10.3435
9.628
14.9354
14.7848
8.5251
9.3321
13.3106
10.1435
9.093
10.5107
10.4322
11.6379
0.31362
-0.96143
-0.78148
0.38884
4.7529
3.0484
2.2752
7.3055
2.1686
5.6433
5.4818
3.5307
5.8068
3.9922
8.9373
7.7799
6.3893
6.6423
0.90747
0.85962
7.1747
4.4955
1.4437
2.9107
10.6971
8.6239
10.3487
10.6536
12.499
9.2448
10.7818
10.1511
10.5785
11.4381
10.1885
10.9379
5.0019
8.6361
7.2002
8.4504
36.0761
33.2979
38.9807
16.3636
13.6737
16.585
14.3702
14.7059
17.8858
14.7433
8.7786
9.88
7.0684
3.3796
9.0938
7.5595
7.5369
10.5339
11.1347
8.5365
5.7203
1.095
4.6403
4.5597
4.0939
-0.16104
-0.48323
4.295
2.9878
0.066041
1.1056
29.9611
20.9485
26.3192
24.4396
23.9404
3.4788
3.0728
7.6482
4.6207
4.4196
6.413
9.8476
11.1143
11.7213
12.808
2.72
4.0213
3.059
4.1696
3.85
5.2631
31.1417
9.6166
11.0949
10.7062
12.9994
11.7658
10.7929
11.531
10.5533
32.6909
36.3829
14.6977
6.0856
10.2498
10.8267
10.6791
9.0858
9.62
3.9737
8.3495
5.8131
10.596
10.0359
10.7556
11.0063
11.7072
12.0799
6.0148
4.0865
2.6128
2.3147
2.6883
2.6392
3.3016
2.645
4.1701
2.5695
3.023
4.8046
1.9461
2.3218
2.8533
3.3758
7.9325
9.995
4.9111
4.8118
4.2084
4.126
1.7498
0.57335
4.3404
3.8527
2.6893
2.7708
15.0047
12.0209
31.1306
34.2498
25.0012
25.1093
33.7828
5.5072
3.8441
10.1418
5.787
5.5605
5.5453
1.1546
1.3677
5.8789
5.1218
3.305
3.2004
-0.11515
-0.022067
4.7635
1.2151
3.2088
6.9337
3.6295
9.2828
9.1609
6.969
8.6783
6.4801
8.1148
8.8529
10.7233
10.7975
-0.039273
0.034969
0.060556
5.6984
4.1373
2.2839
0.5404
2.4055
9.1019
7.7557
14.8304
10.3393
8.6081
10.5845
9.2807
11.14
12.2849
16.6674
12.9092
15.4133
3.7147
8.5344
6.7582
6.0525
8.1426
6.7034
23.9542
23.867
24.2276
26.2888
39.9353
31.9173
9.5489
9.4727
39.6915
34.3144
39.6663
39.8226
35.9317
38.1403
16.3543
23.7819
25.6475
23.4788
12.3723
20.8247
31.6219
32.1366
31.1019
27.515
28.3015
17.1887
33.414
13.7325
15.941
14.0758
33.3454
39.5228
35.3611
27.2087
29.8565
30.1356
39.2409
37.6094
37.1905
18.5253
13.1184
13.8728
30.6463
27.7797
21.3241
13.8835
16.1356
12.9414
14.0417
13.6379
14.9639
14.9431
16.7359
12.9707
13.9208
37.0526
37.8979
43.5217
26.0471
21.8659
24.4805
42.3773
40.2977
41.4933
20.8189
19.8295
19.7139
19.617
19.4373
24.1587
20.2428
19.7048
19.992
26.6851
34.2757
29.5275
31.897
15.5223
15.7597
16.0256
15.1441
34.3791
36.9868
37.3256
44.044
42.5942
42.1989
19.0006
12.1325
10.9385
15.5394
21.583
24.3867
24.7259
25.5505
35.281
17.6628
16.8197
14.5147
15.0566
31.7352
38.5757
37.3747
39.3542
39.2702
30.3289
25.4227
35.4838
29.1453
36.5917
32.5519
31.8699
27.7776
28.419
12.6802
27.3979
31.8676
29.6055
17.883
35.1792
35.9105
14.9229
22.6164
18.6131
20.6341
22.1933
14.5686
12.8081
13.426
21.2701
41.7963
42.0452
25.6632
29.0743
28.9029
9.3481
8.2179
8.081
15.604
10.0944
10.9547
24.4162
25.419
12.9555
12.2444
32.663
31.454
26.1088
25.5057
17.1197
12.2139
28.0166
28.1183
11.0887
12.0064
20.3555
20.4436
30.4182
13.4262
13.7349
32.5621
31.725
9.8308
16.6787
16.9661
14.7356
15.6125
34.4947
11.4979
26.9739
25.231
16.3631
14.7068
25.3455
24.8693
26.4362
18.0658
19.8679
33.4597
32.0457
14.0154
14.1727
25.6103
175.4366
178.1704
185.8422
180.0009
180.6772
173.5842
304.7278
214.6639
436.3148
367.0164
180.1956
438.6828
163.4866
449.5571
101.1033
447.5983
454.7716
205.5591
210.7141
208.1885
209.3699
207.0162
209.6863
374.7886
377.7152
148.1187
151.2221
178.8572
354.3253
355.0194
127.9932
184.3631
360.0326
359.2849
385.2812
429.7744
433.2644
432.6971
417.0778
62.4267
201.1921
127.5303
206.9028
283.3771
455.4147
451.6667
460.9007
220.0031
216.3512
459.9801
207.1435
210.0311
438.4702
432.8302
440.4058
481.9597
435.1124
195.4324
195.6925
191.9847
194.0483
193.9599
195.8503
199.3958
202.2687
198.8562
177.4888
354.675
357.5607
341.5435
345.0842
206.6813
343.9547
346.5898
208.0967
159.652
429.5233
426.3872
171.2636
163.897
165.061
161.87
164.0432
162.5395
357.4837
347.4115
351.298
348.7837
358.8972
349.9331
191.2373
541.1668
541.8579
548.3099
166.7572
169.7738
189.6934
193.0065
186.4775
183.5431
187.6383
188.3658
178.5776
185.6198
191.8763
191.1047
190.7296
180.3883
179.3443
178.0802
220.6362
176.4673
182.47
203.8571
207.1473
376.742
120.2708
199.9175
202.2823
206.9185
203.807
203.9915
210.8456
203.0341
206.7904
200.3513
211.9126
183.6232
125.8531
193.6206
196.208
199.4198
207.0923
208.5425
209.7457
190.3814
196.8741
256.8889
254.1901
210.5918
210.7962
197.8374
194.029
206.2273
116.4273
197.8241
195.6912
120.2361
197.481
201.9368
162.3113
200.5395
201.6703
197.7547
189.4804
183.8805
185.5716
180.0284
177.2092
198.4935
180.1545
192.8178
198.4214
193.8998
184.5849
183.851
180.4393
193.0162
189.7672
180.8938
172.9595
175.7741
380.7694
384.9741
181.7166
176.0564
204.2805
179.5598
185.447
182.5292
199.3002
196.0301
551.75
538.2476
194.8666
203.7676
201.4064
199.1491
201.3754
193.3509
214.2392
201.7366
203.8046
199.629
174.0137
179.9181
205.3393
192.1747
170.3851
173.279
144.4973
146.7235
209.2435
183.5656
177.6199
212.8204
213.0211
88.4515
192.466
228.5961
199.164
460.1232
453.1323
454.0508
455.9971
137.4131
192.4888
135.1086
213.4523
215.3083
542.5324
191.4341
205.0565
189.0042
189.1541
249.5993
249.9027
262.1547
263.1467
320.2233
218.7644
284.8731
202.056
259.8077
263.0218
199.7071
547.6198
192.1814
299.9199
207.1401
260.9672
268.7627
175.8449
175.2413
200.4754
207.3326
182.6612
181.8586
179.765
187.3499
127.7609
180.887
188.5946
186.6549
267.8596
302.653
214.6774
99.3044
210.0275
204.767
222.8381
224.747
223.8429
225.9052
235.65
237.1637
230.3787
232.278
228.9401
80.7664
186.7237
229.6502
227.6077
266.5933
447.5491
300.2309
553.8006
203.9795
205.068
189.3173
189.1241
243.813
238.5946
239.1739
244.0761
202.7275
244.8489
248.7994
199.9155
94.7506
249.4179
251.4942
187.0189
185.6379
132.2649
457.4453
457.2089
454.7543
460.8215
453.8409
444.7747
450.0227
461.9093
167.0198
160.8206
289.2908
290.9751
189.6091
238.162
235.3774
219.1338
223.3508
227.8921
147.9377
149.4421
159.5057
150.8842
152.6936
153.6022
149.3718
157.1605
152.4534
154.1681
159.8349
159.391
241.0831
213.4732
538.0874
164.1912
116.1783
164.8113
161.698
163.6785
165.5636
165.3254
121.9392
89.4392
81.2545
83.7522
173.8897
176.8029
179.1044
181.5641
176.9472
160.839
181.2814
170.9321
206.6103
193.9509
181.7622
188.3213
179.1817
180.2429
176.9425
187.592
182.4389
94.9873
178.3349
191.0627
187.1693
180.4847
184.4569
161.7469
174.8528
226.415
146.6692
141.7045
170.4213
196.9682
202.4558
200.3089
465.5647
185.2682
176.5558
169.3066
192.2991
272.4428
192.8559
189.6231
202.8122
437.7673
157.2619
184.4695
184.9431
175.6156
209.4756
196.1378
185.4196
165.2052
138.3727
144.0038
433.5332
188.5869
140.4249
178.1737
165.9765
225.1335
225.9437
160.1395
217.6087
169.2825
189.7048
161.4336
231.7738
220.7028
233.4859
224.0094
119.1356
168.7791
164.1371
131.5085
176.8751
93.062
193.4541
195.1424
209.7169
163.5388
163.2576
178.6789
178.137
173.4859
181.6916
194.0266
185.6381
310.5089
191.9998
191.2892
172.2985
194.1101
202.6645
201.9991
173.9113
157.6034
125.6888
150.2001
134.6472
423.8662
223.1873
223.8487
219.8464
220.1866
192.0832
182.2927
204.0769
196.6074
186.6242
210.8057
207.8266
259.2297
203.2878
198.974
190.2855
467.0564
192.3813
185.8509
201.0726
256.9435
257.3765
198.0471
200.0607
259.0386
261.0575
260.1473
206.5234
203.8306
191.4315
200.5294
272.4746
141.0621
346.0729
174.6976
275.8354
345.3738
340.5333
186.8978
185.3137
179.2764
213.7652
257.6991
258.5554
180.9347
214.0867
268.6923
191.2668
146.2138
176.9227
442.1177
385.5893
154.8186
201.5437
284.4648
273.4809
212.1806
216.2812
213.3826
189.8139
213.8809
214.3568
193.9853
227.1829
339.4986
278.78
207.494
177.3894
169.6969
550.9275
192.0225
192.5743
175.8982
210.4293
178.4826
208.3159
190.1273
193.5042
195.5268
553.9897
209.7827
205.7844
218.3139
269.3235
261.7386
260.2324
267.0261
267.5218
263.8559
266.5633
266.9521
260.8876
169.3284
144.3664
223.4499
188.2537
187.8797
254.3076
186.0936
187.9076
189.4729
178.5891
167.0003
186.9612
189.9926
189.2237
175.3215
187.3035
213.3773
183.9397
185.3708
275.3674
273.0759
283.0846
209.0075
299.6329
185.8049
243.8999
467.3007
184.1432
234.985
327.7622
171.0341
199.0886
301.4964
433.4348
427.4544
428.7146
436.0448
202.4425
440.323
428.386
434.9636
205.664
438.9457
427.9386
101.1776
137.2914
137.388
138.4842
100.9649
162.6568
185.8353
304.6031
360.7725
442.0699
492.4961
489.5741
321.4446
325.7665
318.7203
315.1251
200.8142
201.2123
221.6314
217.3371
186.3338
232.9003
174.1287
194.6307
191.4984
248.1309
249.6537
245.9582
224.5137
192.5903
83.0295
82.8243
186.1394
181.3508
250.2157
209.6742
244.6652
169.1745
483.8456
69.7236
176.4408
80.043
80.6639
171.0719
215.568
165.7868
473.4383
479.9965
169.9116
171.6889
162.7949
167.6665
480.4854
479.2641
360.6025
211.3851
479.0686
476.4726
472.5805
468.9999
237.2826
162.8815
198.2097
373.0142
162.1134
170.3173
199.6748
186.2864
191.0674
213.7906
468.8079
191.5774
185.8015
188.2356
308.003
222.1813
200.7942
288.0079
189.1667
168.6478
223.0291
192.0894
184.0353
182.5823
208.7539
176.3089
187.4364
115.3418
173.7874
156.7509
228.9018
177.7386
164.3874
181.7294
177.0415
109.6854
223.4052
155.5299
155.185
160.7622
167.8605
181.3316
262.6778
209.1699
417.8738
196.3523
156.1739
159.5701
483.5267
180.6391
193.0988
168.314
365.1348
173.42
196.5456
179.9691
218.7236
187.1979
168.8056
185.0424
473.2765
168.0472
225.4773
170.0284
231.5999
170.994
226.6272
175.5705
143.404
183.3741
197.1918
216.9781
215.7232
215.289
212.0833
209.0472
201.3054
133.573
223.1257
211.1813
185.9622
179.4041
161.5662
160.0313
166.0802
161.5346
165.3306
193.4294
186.5563
182.1157
181.7033
164.5587
162.5632
273.4082
206.1163
179.154
199.2146
196.8939
157.6162
136.8073
135.1602
152.6779
165.3942
304.3896
101.9832
107.9432
162.6022
150.8703
187.9723
132.6669
169.4467
183.0768
186.954
181.8996
230.2278
165.103
443.4348
138.4995
147.3089
169.2064
176.3055
175.6469
175.6385
251.9606
102.541
163.4228
108.5746
196.7384
179.8173
199.5925
214.0049
140.5912
186.4511
158.4358
156.9746
151.9915
191.7794
181.644
159.9543
243.0088
185.4622
190.1729
179.1182
301.7029
179.2625
235.1884
289.5994
179.3767
179.703
181.2891
194.0503
181.5103
179.1684
173.1136
371.8837
210.8757
290.224
195.1932
208.308
161.3412
185.6699
221.9439
195.4971
199.4048
183.6373
137.8246
278.2391
217.4495
209.7729
195.2928
248.8558
175.3044
194.5827
223.9626
169.5362
441.0766
456.0934
445.6376
187.1598
183.8222
191.4481
174.698
183.1355
258.1936
187.4447
259.7522
243.57
260.059
256.8119
256.4282
263.9818
184.0222
421.5376
185.994
263.7938
171.6898
183.8989
222.657
235.5366
456.9793
189.5311
186.9454
185.8883
80.6733
238.0245
184.6083
183.6484
435.8158
275.9749
293.7579
273.1288
193.7343
177.9381
135.0662
270.7299
277.0294
270.6691
269.4493
273.3107
257.7993
256.5026
255.4692
258.3825
408.1176
413.9004
418.0554
351.9398
421.5518
422.309
419.9664
417.1765
413.6447
411.0647
416.8543
265.5714
263.3615
290.9029
348.1492
223.6548
181.2586
367.9541
180.2245
364.9225
188.9279
86.5366
92.0584
94.0443
88.603
84.2426
88.0633
203.588
119.2426
164.9871
158.0145
145.6806
208.7544
164.1609
193.9232
486.9312
193.5849
178.4619
177.4076
197.6764
168.0136
170.7964
233.3602
219.6783
448.4695
165.2567
166.0166
212.626
164.2268
159.7227
96.2215
95.3758
175.1915
165.4543
164.884
238.2205
206.7563
211.9068
201.0891
272.1413
218.9504
222.5765
144.2278
206.1311
178.5195
467.9677
212.7621
186.6416
207.7778
314.7219
308.9485
305.3037
302.3088
189.5911
186.9007
305.8474
310.7409
220.2353
169.6999
192.6008
170.9534
224.9525
174.2169
205.2812
196.2966
265.4046
283.502
275.7374
237.0267
532.8606
539.6528
225.1278
235.1538
262.9966
435.7666
219.7762
264.3694
79.748
243.0688
246.8279
191.0363
537.3628
238.0451
183.7102
89.6591
53.7932
279.9028
272.5263
171.3411
274.546
194.6971
187.3274
265.1157
300.5862
300.9146
302.2381
302.6619
192.1319
194.3581
196.9947
161.3365
185.0581
177.551
259.2393
292.4704
291.275
275.6924
276.2565
267.5658
265.9921
282.5459
268.61
258.672
191.0161
270.9419
269.4884
290.0093
259.5101
263.0964
285.4287
275.7494
278.5109
268.691
453.392
470.0147
547.6454
548.7911
255.4093
259.5107
354.4926
257.1587
189.3583
340.6231
341.37
439.9713
308.192
275.619
183.1807
312.5122
311.8769
294.0089
297.6477
300.7233
302.7499
103.0724
219.7205
304.8707
324.0116
279.8078
308.7844
282.7274
303.4711
306.92
295.5594
282.6653
126.5833
205.8111
198.8521
198.3104
161.5793
340.2071
351.3353
541.5851
199.9481
344.8715
478.0779
209.6215
343.2028
483.4537
480.0275
483.6019
484.6723
172.4381
168.3615
164.8328
303.8977
284.1586
160.9946
251.9443
193.1743
214.659
170.8308
182.8094
175.0503
241.9625
145.0579
197.1846
158.9769
191.4042
190.8519
318.6638
434.1795
202.3104
429.4765
243.8247
548.3598
158.284
203.7274
187.2117
228.7218
233.3583
279.3055
197.2209
194.485
257.6433
245.0442
238.0884
77.4264
189.6349
195.4679
329.7241
198.3382
163.736
193.1867
251.5804
140.0729
259.7018
255.394
139.9021
265.3486
259.9556
236.4562
559.4838
182.8996
264.8618
265.8489
434.8383
432.0376
432.0428
429.7063
387.4676
413.1382
261.1987
494.2719
163.1067
501.0591
501.6167
494.4953
518.7816
510.2757
516.6016
509.9068
520.5878
517.7465
520.0912
429.3841
435.6124
158.7722
214.304
209.6302
158.3917
159.299
196.9752
240.1337
378.3557
162.3415
433.3195
471.2803
249.4861
482.2347
176.6853
173.3897
91.8634
86.392
93.4576
90.7666
356.4016
84.5621
195.3158
131.7035
190.3797
203.0339
88.2241
81.7126
172.832
374.1218
229.9686
235.3606
242.0041
238.1131
182.6411
228.3339
377.1884
89.3369
377.8683
378.7954
481.1858
387.6323
453.3636
449.7078
457.4775
453.6696
465.9068
464.2424