/*--------------------------------*- C++ -*----------------------------------*\\
| =========                 |                                                 |
| \\      /  F ield         | OpenFOAM: The Open Source CFD Toolbox           |
|  \\    /   O peration     | Version:  v1706                                 |
|   \\  /    A nd           | Web:      www.OpenFOAM.com                      |
|    \\/     M anipulation  |                                                 |
\\*---------------------------------------------------------------------------*/
FoamFile
{
    version     2.0;
    format      ascii;
    class       volVectorField;
    location    "3";
    object      U;
}
// * * * * * * * * * * * * * * * * * * * * * * * * * * * * * * * * * * * * * //

dimensions      [0 1 -1 0 0 0 0]


internalField   nonuniform List<vector>
7155
(
(0.0026248 -0.0021896 0.013674)
(-1.1731e-07 3.9281e-07 -7.8956e-06)
(7.5535e-07 2.2248e-07 -7.5318e-06)
(-0.0060612 0.00102 0.0071467)
(1.0781e-06 -7.113e-07 6.7302e-06)
(-0.010544 0.0022203 0.0048647)
(3.8304e-06 -8.8715e-07 1.1687e-05)
(0.0040359 0.014606 0.012259)
(-0.012553 -0.0012025 0.0031265)
(-0.0054066 -0.0077582 -0.0032544)
(-0.0090547 -0.0040442 0.0028681)
(-0.0049179 0.0061075 0.0080982)
(2.327e-06 2.9377e-06 2.7393e-05)
(-0.00019047 -0.019388 -0.0012258)
(-0.0027162 0.019133 -0.0013569)
(-6.8985e-07 1.2519e-06 -5.8435e-05)
(0.0029199 -0.0011455 0.0064597)
(-0.0073043 -0.00089988 -0.0081743)
(0.0016898 0.0020596 0.010773)
(-1.9495e-06 -7.4786e-07 -1.6448e-06)
(-0.0067228 0.0018835 0.0017794)
(-0.0012521 -0.012938 0.00086141)
(-6.4251e-06 5.6411e-07 -2.3818e-05)
(-5.4924e-06 -2.648e-06 3.0697e-05)
(0.0071849 -0.025727 0.030726)
(0.018509 -0.0093883 -0.0090255)
(0.012568 0.018952 -0.0098136)
(8.6903e-06 -7.5074e-06 4.4743e-05)
(-9.0394e-07 4.3554e-07 -1.3957e-06)
(-0.00027233 -0.0097605 0.018314)
(-0.0040254 -0.0023304 0.019135)
(0.00037082 -0.0028576 0.01846)
(-0.0025858 0.001741 0.012389)
(-0.006246 -0.00010374 0.024182)
(-0.0067882 -0.0089641 0.062839)
(-0.0062531 -0.0086093 0.060182)
(-0.0044264 -0.010269 0.064826)
(-0.0032248 -0.0097249 0.065925)
(-0.0041598 -0.0098213 0.062635)
(0.00081001 0.005068 0.014566)
(-0.010166 0.014164 0.0067291)
(-0.006757 0.018266 0.0040546)
(0.002135 -0.0077767 0.010845)
(-0.0037109 -0.0051033 0.034949)
(0.0071354 -0.0038211 0.016034)
(-0.018332 -0.0011237 0.044862)
(0.0074688 -0.0081009 0.011979)
(-9.8703e-08 1.6429e-07 -2.6008e-06)
(-0.0023561 -0.0065064 0.019044)
(-5.3114e-07 1.4382e-07 -8.1662e-06)
(-0.011755 -0.0028418 0.055696)
(-0.011443 -0.015912 -0.0321)
(-1.3609e-06 2.9409e-06 3.4833e-05)
(0.0006003 -0.0049847 -0.01769)
(0.014388 -0.022563 -0.026423)
(0.00044147 0.00023751 0.026351)
(1.3318e-06 7.4083e-07 -5.7134e-06)
(-1.0085e-06 5.9175e-07 -1.7083e-05)
(-0.0081969 -0.01383 0.029659)
(0.0036194 -0.011909 0.06565)
(0.0021939 -0.011553 0.068152)
(0.00095498 -0.0096661 0.062171)
(-0.00031366 -0.010954 0.063711)
(0.004389 -0.013972 0.067441)
(0.0004836 -0.010216 0.066603)
(0.0033644 -0.012556 0.065923)
(-0.00029588 -0.01041 0.067939)
(-0.00025265 -0.0095712 0.067965)
(-0.0010816 -0.0089039 0.064734)
(0.0045951 -0.01452 0.064564)
(2.9199e-07 -9.8351e-08 -8.5969e-07)
(0.0022149 -0.0034725 0.0096721)
(-0.0024569 0.0012127 0.027982)
(0.0042091 -0.0010516 0.02496)
(0.0028446 -0.0088168 0.017922)
(-0.0036492 0.0053611 0.0088866)
(3.9372e-08 -6.9202e-08 -7.7399e-07)
(-0.0050122 0.024949 0.0020726)
(0.026275 0.0043707 -0.013483)
(0.029574 0.0081562 0.0058551)
(-0.0031891 0.010503 -0.0080077)
(0.0025501 -0.00046809 0.0070292)
(-0.0095514 0.011846 0.0012751)
(0.025881 -0.0026565 0.0095118)
(2.1416e-07 2.7101e-06 2.5975e-05)
(-0.0034827 0.016177 -0.0057683)
(-1.7673e-06 -1.6359e-05 1.2298e-05)
(0.0089937 -0.0020356 0.0059881)
(-0.0025379 -0.023814 0.0025558)
(0.0013084 -0.0068792 0.013358)
(-0.012762 -0.0062041 0.047779)
(-0.0086276 0.0025099 0.049904)
(-0.014089 -0.018682 0.057506)
(-0.0086897 -0.01561 0.0495)
(-0.0011725 -0.0028285 0.029252)
(0.00010357 -0.0091995 0.028956)
(0.00059464 -0.0054347 0.045063)
(-0.0047032 -0.0090215 0.042752)
(-0.0022914 -0.0093123 0.044601)
(-0.0027749 -0.0088253 0.03392)
(-0.0036563 -0.0084227 0.042402)
(-0.00097273 -0.010046 0.049317)
(-6.9422e-08 1.9881e-06 -3.5369e-06)
(-0.0064326 -0.013586 0.0046889)
(-0.0061795 -0.010471 -0.00066847)
(0.017042 -0.0021105 0.0071975)
(-3.7405e-06 2.3698e-06 5.1787e-05)
(-0.012591 0.00065702 0.02142)
(0.00052265 0.016544 0.0050156)
(-0.0052587 8.3359e-05 0.02301)
(-0.0027389 -0.0053604 0.026368)
(-0.0035889 -0.0070221 0.039844)
(0.012681 -0.0067524 0.046618)
(0.01543 -0.0038216 0.033082)
(-0.004254 -0.0086207 0.051069)
(-0.0015499 -0.0039698 0.054161)
(-0.0041261 0.0086097 -0.016282)
(-0.00059894 -0.001996 -0.012592)
(-0.01201 -0.0063521 -0.0035744)
(0.00061968 -0.0021963 -0.0048077)
(0.00066289 -0.0099134 0.066304)
(0.002581 -0.012036 0.067594)
(0.0055914 -0.0076934 0.06386)
(0.0058122 -0.0078876 0.064607)
(0.0017589 -0.010344 0.064733)
(0.008412 -0.0038329 0.053692)
(0.010444 -0.00073373 0.049265)
(0.0094544 -0.0063864 0.056614)
(0.015879 -0.0019257 0.057125)
(0.022519 0.0013486 0.052854)
(0.029503 0.0057504 0.051473)
(0.038531 0.0027812 0.048986)
(0.014744 0.00044428 0.046448)
(-7.4192e-06 1.213e-05 -4.3203e-05)
(-0.0080653 -0.0018201 -0.0098226)
(0.0018761 -0.011985 0.0040689)
(-0.0056741 -0.0098827 0.001692)
(0.0083573 0.0011198 0.018999)
(-0.0053844 0.0052237 0.0024185)
(6.5608e-06 3.0348e-06 7.9847e-05)
(0.021202 -0.003345 0.020765)
(-0.009903 -0.010689 -0.013784)
(-0.0097771 0.0043091 -0.022733)
(-0.023122 0.0036057 -0.016214)
(-0.028699 -0.0033528 -0.016098)
(-0.02406 0.0069813 -0.0088174)
(-4.0217e-07 7.553e-07 -7.4021e-07)
(0.0038315 0.00087159 0.010931)
(-0.0045293 0.0013523 0.0039701)
(0.00046154 -0.00076777 0.019177)
(-0.0020389 -0.0080882 0.023738)
(-0.00094394 0.00042898 0.0058195)
(-8.5353e-07 6.3182e-08 -1.1645e-05)
(-0.0038479 -0.0052189 0.031537)
(-0.0049771 -0.0054694 0.032666)
(-1.422e-06 1.0216e-06 -4.7205e-05)
(-0.0062495 0.0018534 0.017078)
(-0.0043693 -0.0031077 0.024606)
(-0.0037995 -0.0026347 0.023949)
(-0.0029212 -0.0086567 0.040791)
(-0.0036021 -0.0063249 0.037831)
(-0.0039842 -0.006775 0.04179)
(-0.0016239 -0.0074594 0.033292)
(-0.0040916 -0.0020076 0.011831)
(0.0031613 -0.0023595 0.017622)
(5.7284e-05 -3.3413e-05 0.00018085)
(-0.010198 0.0052342 -0.043679)
(0.016575 0.0064723 0.0068927)
(0.011084 -0.0025606 0.0037484)
(0.0051326 -0.0050586 0.0024201)
(1.3819e-06 -4.2037e-06 3.9269e-05)
(4.1737e-06 -1.7035e-06 2.4782e-05)
(0.005903 0.0105 0.0061236)
(0.0009167 0.012329 0.0063773)
(2.9426e-06 -5.5985e-06 5.2148e-05)
(1.0976e-06 -4.4887e-06 3.5183e-05)
(0.012328 -0.0010313 -0.025955)
(0.0031306 -0.0037152 -0.03138)
(0.011224 -0.0038152 -0.015843)
(0.010209 -0.0090962 -0.018135)
(0.0017767 0.0032643 -0.018412)
(0.0036984 0.0077969 -0.010577)
(0.006964 -0.0027731 -0.011336)
(0.012247 -0.0025167 -0.010232)
(-0.0063682 0.011225 -0.0026629)
(5.2307e-06 1.1236e-06 2.8072e-05)
(-0.021957 -0.0088133 0.004233)
(-0.010218 -0.0026813 0.018904)
(0.00088417 -0.0018878 0.027746)
(-0.0077918 -0.0048385 0.017904)
(-0.0076711 -0.0063102 0.018994)
(-0.00010691 -0.0044778 0.014098)
(-0.00038337 -0.0082788 0.018891)
(0.00038938 -0.0072899 0.010524)
(-1.2961e-07 3.6111e-07 -1.2793e-05)
(0.00097789 -2.0627e-05 0.0066394)
(-1.0849e-07 -1.4971e-07 -2.0065e-05)
(-0.00085415 0.00235 0.0071727)
(3.3335e-07 -8.2791e-07 -4.5121e-07)
(0.0015584 -0.0013915 0.0030403)
(-1.685e-06 9.4018e-07 4.3872e-07)
(0.0016103 -0.00010735 0.010369)
(-0.00037492 -0.00049826 0.012961)
(0.00012734 -0.0042493 0.017765)
(-0.018518 -0.014456 -0.023938)
(7.1274e-06 4.3371e-06 3.5407e-05)
(-0.012834 -0.019837 -0.0019054)
(-0.0023667 -0.011877 0.067057)
(-0.0015079 -0.0090618 0.065164)
(-0.002501 -0.012 0.06464)
(-0.00098118 -0.0099511 0.063733)
(-0.0043623 -0.0081343 0.067075)
(-0.0025459 -0.010874 0.063738)
(-0.000237 -0.0086386 0.063814)
(0.0038173 -0.00066793 0.017622)
(8.7357e-07 1.9471e-07 -1.7763e-05)
(-0.0079224 -0.0045289 0.013876)
(0.0045453 0.0038426 0.016056)
(-0.0012668 -0.010374 0.066291)
(-0.0005538 -0.010083 0.065328)
(-0.0022811 -0.0099059 0.062648)
(-0.0023921 -0.010548 0.061325)
(-0.0036437 -0.0085742 0.059674)
(-0.0026474 -0.0087339 0.063259)
(-0.0040922 -0.010756 0.064962)
(-0.004854 -0.012027 0.064547)
(-0.001963 -0.011153 0.060839)
(1.0545e-07 -2.6281e-07 -1.1115e-06)
(0.00073943 -0.002946 0.0099247)
(0.00040014 -0.0022486 0.01666)
(0.0033031 -0.00095098 0.0087964)
(0.0010489 -0.0080125 0.014083)
(-0.00034504 -0.0074425 0.02013)
(-0.0030872 -0.0010319 0.0044708)
(1.1433e-08 7.7357e-08 -1.5819e-06)
(-0.0019479 -0.005768 0.045579)
(-0.0026754 -0.0073352 0.046921)
(-0.0014665 -0.00785 0.043186)
(-0.00085991 -0.0075147 0.044056)
(-0.0019242 -0.003965 0.051568)
(0.00059325 -0.0063347 0.055165)
(0.00056535 -0.0054488 0.054851)
(-0.00057426 -0.0059975 0.050587)
(-0.046128 0.0077143 -0.00067196)
(-0.060693 -0.012691 -0.017127)
(-0.076219 0.0097791 0.013505)
(-0.068643 0.0015946 -0.024694)
(-0.044273 -0.00042145 -0.0072107)
(-0.041103 -0.011428 -0.038655)
(-0.031696 -0.016797 0.0033101)
(-0.010467 -0.00057002 0.025994)
(1.5719e-05 -4.3095e-06 -0.000192)
(-0.015069 0.0068564 0.021673)
(-0.01952 -0.00017337 0.018099)
(-0.0021539 -0.0051934 0.025334)
(-0.0020363 -0.005823 0.029178)
(-0.0027706 -0.0063653 0.035138)
(-0.003119 -0.0046467 0.031765)
(-0.0035331 -0.0034458 0.024931)
(-0.0022802 -0.0057949 0.024468)
(-0.0029479 -0.0030601 0.012739)
(-0.0017222 -0.0030081 0.0098465)
(0.0011822 -0.0013937 0.050325)
(-0.0016675 -0.0018772 0.042542)
(0.0035801 0.002794 0.039065)
(0.0071037 4.7722e-05 0.03085)
(-0.0057368 -0.00046259 0.0078816)
(-0.0043678 -0.0081529 0.0077945)
(0.00035667 0.0099681 0.001729)
(-0.014864 -0.017895 0.006238)
(-0.01132 0.00667 0.005821)
(-1.1716e-05 1.4454e-05 -3.8728e-05)
(-0.0025099 0.0033286 0.018005)
(0.0055701 0.002049 0.0063516)
(-0.0027388 -0.0004939 0.0048661)
(-2.6046e-07 3.2168e-07 -1.7804e-06)
(0.00065665 -0.006241 0.0081266)
(-0.0011004 -0.0055273 0.01222)
(-0.0010553 -0.0031758 0.029481)
(0.00066632 -0.0049996 0.023209)
(-0.0013434 -0.0042676 0.035211)
(-0.00090057 -0.0067034 0.030542)
(-0.074719 0.022574 -0.042016)
(-0.069189 0.018947 -0.067957)
(-0.070365 0.0060662 -0.048033)
(-0.080248 0.011031 -0.035747)
(-0.0039858 -0.0059759 0.031287)
(-0.00073307 -0.0066895 0.039715)
(-0.0050859 -0.0068637 0.043944)
(-0.0034707 -0.0076156 0.044103)
(-0.072359 0.0065179 0.010581)
(-0.073114 0.0076795 0.028108)
(-0.070633 -0.0018191 0.018081)
(-0.075031 -0.0055118 0.022509)
(-0.065529 -0.010088 0.047268)
(-0.076321 -0.00042589 0.035869)
(-0.077109 -0.004188 0.019272)
(8.6002e-06 1.8151e-06 -2.879e-05)
(-0.01123 0.0064982 0.025164)
(-0.02042 -5.3528e-05 0.010399)
(-0.0057316 0.0044855 0.015985)
(0.0073844 -0.0008705 0.0075218)
(-1.1815e-06 1.7346e-06 -1.0646e-05)
(0.00014648 0.0017516 0.0028212)
(0.0042346 0.0045224 0.010736)
(1.0611e-05 -1.9546e-06 4.5641e-05)
(0.0035286 0.0031854 0.00019897)
(-0.0035746 -0.0038322 -0.0019249)
(0.0026698 -0.015468 0.0088183)
(-0.00059475 0.0061758 0.0112)
(-0.0035131 0.014558 0.00055009)
(-0.0033388 0.012986 -0.0048261)
(-0.011347 -0.0043706 0.0035819)
(0.0055293 -0.01028 -0.0155)
(-0.0095883 -0.0021258 -0.0026837)
(-0.02447 -0.0015907 -0.0054929)
(0.010263 8.7046e-05 -0.0046423)
(0.0076892 -0.0025708 -0.0013449)
(0.012117 0.013381 0.0020318)
(0.0066744 0.012497 0.0099265)
(0.0049932 0.012688 0.0016837)
(-0.0051889 -0.00036955 -0.0079058)
(0.0034083 0.015969 0.00044061)
(0.0071717 -0.01814 -0.018405)
(0.01281 -0.0033141 -0.018144)
(-0.02099 -0.0031224 -0.041811)
(-0.028709 0.0019782 -0.025981)
(-0.042267 0.0074172 -0.050267)
(-0.034156 -0.0085453 -0.031619)
(-0.0013794 0.0011612 -0.031434)
(0.01846 -0.017662 0.003415)
(-0.0075659 -0.0060422 0.002813)
(-5.0868e-06 -9.9417e-06 -9.1354e-06)
(-0.014692 0.028858 0.00091506)
(-0.016446 0.01219 -0.0028276)
(-4.3722e-07 -2.3927e-06 9.8498e-07)
(1.7846e-06 4.0207e-07 4.1546e-06)
(0.0052495 0.0039981 0.0079648)
(-0.0038366 -0.0032223 0.0043066)
(-0.027533 0.012904 -0.032904)
(-0.027569 0.014657 -0.029693)
(-0.015834 0.0066217 -0.013277)
(-0.015704 0.010172 -0.02595)
(-0.017201 0.028631 -0.0061542)
(0.0008171 -0.0014643 -0.009414)
(0.0049178 0.024031 -0.018463)
(-0.01511 0.018493 -0.04465)
(-0.072656 0.0070124 -0.015445)
(-0.06773 0.010232 0.0026984)
(-0.075545 -0.0022561 -0.017787)
(-0.076702 0.013212 -0.0020867)
(-0.059499 -0.0027479 -0.012247)
(-0.069147 -0.00078512 -0.026703)
(-0.072463 -0.0054093 0.0052163)
(-7.3087e-05 -0.0018156 0.058023)
(-0.00097015 -0.0062173 0.054527)
(0.00034573 -0.0071028 0.059731)
(-0.0020493 -0.011163 0.060777)
(-0.02219 0.012656 0.012037)
(-0.026099 0.0017353 0.0028971)
(-0.011941 -0.018597 0.0019605)
(-0.025793 -0.0072472 -0.0039377)
(-0.019054 -0.0053871 0.017554)
(0.0023037 -0.0016341 0.0087568)
(-1.0655e-07 9.4717e-08 -4.3182e-06)
(-0.00069836 0.00024896 0.0074269)
(0.0010033 0.0030849 0.019213)
(-0.013202 -0.0022086 0.023118)
(-0.0058586 -0.0038723 0.020893)
(-0.02887 -0.0049947 0.01133)
(-0.028445 -0.007217 0.029206)
(0.0020189 -0.0022978 0.012274)
(-0.00031566 -0.0030636 0.018551)
(3.4436e-07 5.8066e-07 -6.8915e-06)
(-0.0011311 -0.0051623 0.018253)
(0.00051663 -0.0070962 0.05107)
(-0.0002093 -0.0071081 0.049699)
(-0.0013765 -0.0074919 0.047419)
(-0.00013507 -0.008473 0.040582)
(0.00012307 -0.0092531 0.039323)
(-0.0017716 -0.0052473 0.037948)
(-0.0019192 -0.0068512 0.046197)
(0.00099699 -0.0081538 0.041125)
(0.0016663 -0.0099539 0.041005)
(0.00086755 0.0019967 0.018208)
(6.5656e-06 -1.0282e-05 -4.39e-05)
(0.0053797 0.0010349 0.018929)
(0.0022747 -0.0045288 0.022773)
(0.010095 0.004125 0.011162)
(0.0086495 0.00015234 0.020624)
(0.0029889 0.0021952 0.0035897)
(-1.591e-06 -7.4961e-07 -6.9557e-05)
(0.0025461 -0.005969 0.047353)
(-0.0019801 -0.0076559 0.041992)
(-0.0017918 -0.006844 0.041777)
(-5.7798e-05 -0.0059318 0.045747)
(0.00078285 -0.0057178 0.049211)
(-3.723e-06 2.1143e-06 -9.7892e-06)
(-0.011924 0.0021555 0.011874)
(0.0032331 -0.0082496 0.016764)
(-0.0031844 -0.0020677 0.0093536)
(-1.9249e-05 -0.0058704 0.063323)
(-0.0028 -0.0047903 0.066531)
(-0.0042221 -0.0048812 0.062993)
(-0.0037482 -0.0060256 0.05393)
(-0.005789 -0.0070354 0.060451)
(-0.0049059 -0.0081754 0.066911)
(-0.0041509 -0.0076362 0.065969)
(-0.0045373 -0.0092179 0.067927)
(0.0017408 -0.0060757 0.059434)
(-0.0010357 -0.0067597 0.059999)
(-0.0011411 -0.0061967 0.062531)
(0.00010566 -0.0082453 0.064212)
(-0.0033761 -0.0096752 0.058508)
(-0.0027096 -0.010833 0.060334)
(3.1802e-06 -0.0060051 0.060157)
(-0.0019422 -0.0088994 0.063685)
(-0.0022155 -0.0078736 0.064275)
(-0.0013082 -0.0074776 0.053543)
(-0.00091145 -0.0081682 0.052138)
(-0.001385 -0.010551 0.055654)
(-0.0016693 -0.0080084 0.044553)
(-0.0015395 -0.0068555 0.052928)
(-0.0014727 -0.0081272 0.046549)
(-0.0027371 -0.0092413 0.060038)
(-0.0027401 -0.0070494 0.061418)
(-0.0032616 -0.0071364 0.05456)
(-0.0015098 -0.0076665 0.053073)
(-0.0039747 -0.007856 0.054546)
(-0.0026148 -0.0086003 0.054379)
(-0.0032616 -0.0066737 0.049197)
(-0.0040104 -0.0075853 0.049876)
(-0.0027197 -0.0057962 0.062198)
(-0.0047987 -0.0053957 0.062091)
(-0.00059862 -0.0063835 0.061644)
(-0.0014444 -0.0095232 0.057996)
(2.3634e-06 4.4309e-06 -6.5397e-06)
(-0.010055 0.0037967 0.015683)
(-0.011435 -0.012413 0.014823)
(-0.010396 -0.0034421 0.011117)
(0.01053 -0.0058851 0.046101)
(0.0068609 -0.00089963 0.043604)
(0.0041163 0.00012367 0.019652)
(0.0031261 -0.0054372 0.023678)
(0.0014066 -0.0034508 0.0062177)
(-6.2142e-07 -2.8733e-07 -1.6423e-06)
(0.00054145 -0.0019097 0.0074296)
(0.0012399 -0.00059227 0.037727)
(-0.00038929 -0.0033998 0.039678)
(0.0017154 -0.0029208 0.029023)
(-0.00021345 -0.0058471 0.034531)
(0.009148 -0.0092733 0.0058153)
(0.015799 -0.0044181 0.0062841)
(0.0059792 -0.014311 0.0031439)
(0.0025033 -0.0025186 -0.0019405)
(0.007156 0.010448 -0.00063077)
(-0.002425 -0.0012566 0.0082877)
(0.0026162 -0.0041027 0.057089)
(0.0086029 -0.0026786 0.043228)
(0.0061854 -0.0034923 0.044361)
(0.0037743 -0.00081896 0.049128)
(-0.00075985 -0.0024196 0.057096)
(-0.00067877 -0.0057886 -1.8923e-05)
(-2.6283e-06 -5.1437e-06 1.0424e-05)
(-0.010406 -0.0060113 -0.0029377)
(-0.015539 0.0072655 0.00015566)
(5.5741e-06 -5.8635e-06 4.1698e-05)
(0.0014563 0.0040955 -0.0032549)
(3.9647e-06 7.5183e-07 -3.9722e-06)
(-0.00073888 0.00079995 0.0056012)
(-0.0094475 0.010762 0.0078604)
(-0.0017786 -0.007 0.055526)
(-0.0010698 -0.0088822 0.051342)
(0.00026505 -0.007704 0.050534)
(-0.0020761 -0.010378 0.055003)
(0.0014232 -0.0048531 0.058244)
(0.0009002 -0.0052182 0.06044)
(-0.00055304 -0.0033055 0.059157)
(-0.00041846 -0.0022903 0.058097)
(0.0023896 -0.0011942 0.059294)
(0.0019063 -0.0031323 0.060711)
(-0.0005702 -0.0048786 0.059506)
(0.0033133 0.00034452 0.058171)
(0.0062808 -0.0012895 0.052959)
(0.002155 -0.0011611 0.057226)
(-0.00055546 -0.0075901 0.062353)
(-6.2693e-08 5.2317e-08 1.2001e-06)
(0.00012401 -0.0007336 0.00039278)
(0.0012216 -0.0021148 0.0037766)
(-1.9587e-07 4.9684e-07 -8.809e-06)
(0.0011291 -8.2893e-05 0.0024608)
(-1.8623e-07 4.8089e-08 -8.9513e-08)
(0.0049506 -0.0011046 0.0089901)
(0.0012613 -0.0019658 0.017168)
(0.0011662 0.0061902 -0.011418)
(0.0023799 0.0030211 -0.0011869)
(-0.00098983 0.014149 -0.0025827)
(-0.0071831 -0.01034 -0.0026473)
(-1.1883e-07 5.4365e-09 -5.959e-06)
(-0.0010681 -0.0084111 0.014807)
(0.0023025 -0.00075848 0.024784)
(-0.0094997 -0.0071577 0.021021)
(-0.0035534 -0.0022875 0.033285)
(0.0016753 -0.0034533 0.032862)
(0.0001453 0.012569 0.014875)
(0.00036007 -0.0095311 0.055678)
(-0.0029742 -0.0075937 0.055382)
(0.001567 -0.008953 0.063675)
(-0.0055172 -0.0071118 0.061471)
(-0.0078019 -0.0066326 0.05633)
(-0.0049716 -0.008239 0.059733)
(-0.0041904 -0.0091133 0.061457)
(-0.0062734 -0.0081654 0.058823)
(-0.015901 -0.007761 0.070381)
(-0.018442 -0.010904 0.070286)
(-0.0083074 0.0022404 0.07352)
(-0.020184 -0.00069101 0.058376)
(0.00082055 -0.012672 0.059214)
(0.0102 -0.003238 0.058666)
(0.0025542 -0.0046263 0.054294)
(-0.008018 -0.0054676 0.058606)
(0.010864 -0.0075868 0.040331)
(0.0044092 -0.0051571 0.046813)
(0.00060759 -2.2095e-05 0.026148)
(-0.012581 -0.012232 0.043938)
(-0.011886 0.0042704 -0.0096583)
(-0.0013178 0.0064702 0.015537)
(6.6589e-06 -4.0545e-06 6.0107e-06)
(-0.043649 -0.02758 -0.039895)
(0.00018481 4.5324e-05 0.00062905)
(7.8381e-05 8.0973e-05 0.00036688)
(-0.006271 -0.028046 -0.038928)
(0.022443 -0.053637 -0.029219)
(7.2893e-06 -2.5745e-06 -5.1633e-05)
(-0.0039497 0.0056145 0.02887)
(0.00050792 0.0032239 0.044992)
(0.0036009 0.0035246 0.044442)
(-0.0070059 -0.0019094 0.023735)
(0.042591 -0.00089391 0.035117)
(0.022471 0.01212 0.038312)
(0.023296 0.0093281 0.021048)
(0.055188 0.0075698 0.033275)
(0.0013909 -0.0073537 0.029953)
(0.00076119 -0.0090408 0.03534)
(-0.0023532 -0.0064665 0.033536)
(-0.001329 -0.0076192 0.036797)
(-0.00038685 -0.0075252 0.027333)
(0.00082354 -0.0080613 0.026955)
(0.003891 0.021872 -0.0034954)
(-0.0027229 0.010265 -0.0036489)
(-0.025858 -0.0043586 -0.0048998)
(0.00020746 -0.0051574 0.058488)
(0.0011969 -0.0045436 0.052394)
(0.0028172 -0.0021735 0.048254)
(0.0052721 -0.0026774 0.0501)
(0.0012675 0.00047209 0.037296)
(0.004132 0.0047332 0.041883)
(0.00088052 -0.0048341 0.057389)
(6.6335e-08 5.4476e-08 -3.3156e-07)
(-6.9173e-08 -2.0856e-07 -4.9087e-07)
(0.0073894 0.0016428 0.0032548)
(0.0061766 0.0017532 0.0068662)
(-3.8392e-06 3.3841e-07 -1.2462e-05)
(0.0073599 -0.001205 0.0074919)
(-0.006874 -0.0080605 0.013279)
(-6.8611e-06 -1.2002e-05 -0.00018813)
(1.7404e-06 3.1187e-07 7.6874e-05)
(-0.008693 -0.010403 0.011068)
(-0.0051663 -0.0098374 0.038233)
(-0.0031367 -0.0078164 0.045795)
(-0.0026419 -0.0079346 0.041997)
(-0.0010338 -0.0077883 0.028955)
(-0.0063033 -0.011213 0.017025)
(-0.0076121 -0.024945 0.0020954)
(-0.0050546 -0.018454 0.042857)
(0.0017873 -0.015369 0.046837)
(-0.0026353 -0.02164 0.047057)
(-0.0047703 -0.011909 0.051587)
(-0.0053526 -0.012057 0.048474)
(0.0080065 -0.015118 0.053339)
(0.0024574 -0.019187 0.033394)
(-0.0081504 -0.020151 0.040844)
(0.0022009 -0.015041 0.062744)
(-0.0006564 -0.011026 0.061018)
(0.0028663 -0.015661 0.055443)
(0.0032911 -0.012382 0.058389)
(-0.0014127 -0.0097593 0.058864)
(-0.0023828 -0.0084608 0.054636)
(-0.0014348 -0.0094384 0.057807)
(-0.0023931 -0.0068381 0.055222)
(-0.0074468 -0.019462 0.053208)
(-0.0004932 -0.0091431 0.053179)
(0.0015137 -0.011228 0.053464)
(0.0010041 -0.0096788 0.046433)
(0.0012555 -0.008838 0.045097)
(-0.00038629 -0.0092156 0.050943)
(-0.0012893 -0.0077338 0.049158)
(0.00050829 -0.010542 0.061982)
(0.00031666 -0.0074113 0.061099)
(-0.0013977 -0.0091181 0.064657)
(-0.0020724 -0.0083475 0.068043)
(-0.0030047 -0.0099563 0.066992)
(-0.0054485 -0.0065213 0.044492)
(-0.0029666 -0.0090353 0.049987)
(-0.0047544 -0.011765 0.051301)
(-0.0037869 -0.0087396 0.052678)
(-0.017392 -0.015593 0.053161)
(-0.014298 -0.01903 0.06334)
(0.0021701 -0.0094256 0.045794)
(-9.2261e-05 -0.0085302 0.04525)
(3.0476e-05 2.4523e-05 5.8271e-05)
(0.0024898 -0.014431 0.062674)
(-0.0016069 -0.0051117 0.04131)
(-0.0038196 -0.0073431 0.048112)
(-0.0025152 -0.0080209 0.061128)
(-0.0022734 -0.0072949 0.055196)
(-0.0012094 -0.0077182 0.051593)
(-0.0019026 -0.0081271 0.05653)
(-0.0023656 -0.0064636 0.040425)
(-0.0021846 -0.0070144 0.043936)
(-0.00087326 -0.007222 0.049188)
(-0.0020548 -0.008219 0.051487)
(-0.037097 0.0058082 0.0024468)
(-0.040423 -0.00073584 -0.012474)
(-0.037439 0.0026674 0.0083318)
(-0.033599 -0.0018543 -0.002974)
(7.2614e-06 -6.1157e-06 5.2497e-05)
(-1.7881e-06 -1.2805e-05 -7.2065e-06)
(-0.0041961 -0.010335 0.069876)
(-0.0015415 -0.010279 0.068172)
(-0.0031403 -0.010396 0.067751)
(-0.0057734 -0.0087232 0.053229)
(-0.0091212 -0.0038067 0.050734)
(-0.0074759 -0.0024863 0.049673)
(-0.0049513 -0.0080053 0.060042)
(-0.0044396 -0.010573 0.058799)
(-0.0010881 -0.0033463 0.060944)
(-0.0013255 -0.0036151 0.056419)
(1.8064e-05 0.00065405 0.0053013)
(-0.0085771 -0.00045645 -0.010694)
(-0.0026624 -0.0085638 -0.018743)
(-0.014129 0.0055149 -0.015333)
(0.0020746 -0.0069451 0.061902)
(0.0036583 -0.011761 0.064579)
(0.013038 -0.00081063 0.056303)
(0.0094917 -0.0078382 0.060809)
(-0.0050837 -0.016474 0.045244)
(-0.010774 -0.022201 0.059733)
(-0.0021228 -0.017278 0.068103)
(-0.0088833 -0.015969 0.066527)
(-0.0047634 -0.014939 0.065017)
(-0.01014 -0.013444 0.063885)
(-0.0067549 -0.0013627 0.049931)
(-0.0047709 -0.00047939 0.050822)
(-0.0015998 -0.0012529 0.058525)
(0.0077814 -0.0057698 0.060655)
(-0.025559 0.0009943 -0.0094794)
(-0.0028817 -0.0065693 -0.022556)
(-0.031987 -0.0021245 -0.00083653)
(-0.0016985 -0.017741 0.002383)
(-0.0045919 -0.01096 0.058333)
(-0.0070048 -0.011141 0.061272)
(-0.005066 -0.011985 0.056375)
(-0.0044493 -0.004364 0.034326)
(-0.0046839 -0.00042817 0.032307)
(-0.00487 -0.0010879 0.043038)
(-0.0021947 0.0010082 0.043404)
(-0.0065122 -0.0038429 0.039082)
(0.00049541 -0.0099987 0.045257)
(-0.0014198 -0.0092723 0.045898)
(-0.0071614 -0.011958 0.062662)
(-0.0064418 -0.011498 0.061647)
(-0.0058025 -0.011202 0.059035)
(-0.0066918 -0.015689 0.06443)
(-0.0020349 -0.0021886 0.0093344)
(-0.011392 -0.011873 0.024332)
(-0.0012267 -0.012898 0.044709)
(-0.027634 -0.016416 0.048489)
(-0.025798 -0.0089264 0.045768)
(-0.0020652 -0.0012544 0.038773)
(-0.001214 -0.0043613 0.044033)
(-0.0062225 -0.00085811 0.033573)
(-0.0055733 -0.00047363 0.042282)
(-0.0062961 -0.0012555 0.03305)
(-0.0057749 -0.0058608 0.042651)
(-0.0027784 -0.0037062 0.046811)
(-0.0035242 -0.015554 0.059865)
(-0.0035108 -0.010819 0.060592)
(-0.0050309 -0.014594 0.052266)
(-0.0037126 -0.0096074 0.053564)
(-0.0077653 -0.0076706 0.042014)
(-0.0065363 -0.010384 0.045717)
(0.00066195 -0.0094088 -0.021888)
(-0.0034069 -0.020461 -0.014737)
(0.0017345 -0.0070994 -0.025891)
(0.0041361 -0.016389 -0.021911)
(-0.0012565 0.0007201 -0.0084005)
(-0.00248 -0.0041318 -0.0012046)
(0.0018074 -0.0099564 0.063718)
(0.00435 -0.0098543 0.065625)
(-0.0022448 -0.01103 0.067829)
(6.0234e-07 -3.5072e-07 -1.1193e-05)
(-0.0030369 -0.0023718 0.0086813)
(0.0030593 -0.0052572 0.013284)
(0.0059561 -0.0084206 0.01265)
(0.013458 0.00085267 -0.0036823)
(0.0049485 -0.010855 -0.015689)
(-0.014516 -0.014853 -0.0042299)
(-0.0076779 -0.014733 -0.0043247)
(-0.020178 -0.0082964 -0.0019802)
(0.0044063 0.0023278 -0.0066651)
(0.01162 -0.018313 -0.0034055)
(0.0031853 -0.0066935 0.00024338)
(0.0052205 -0.0084721 -0.0017879)
(-0.0046386 -0.012322 0.056707)
(0.0023766 0.0012009 0.025723)
(0.00037512 -0.0067988 0.032132)
(0.00099081 -0.0087149 0.032373)
(0.0014299 -0.005396 0.041564)
(0.0003121 -0.0070339 0.053486)
(-0.00037224 -0.0056452 0.044961)
(0.0002741 -0.0062958 0.026855)
(0.0009319 -0.0081479 0.029243)
(-0.00028329 -0.0081759 0.029242)
(-0.0042738 -0.0087688 0.056927)
(-0.0015629 -0.0083689 0.055615)
(-0.0033027 -0.0043624 0.055834)
(-0.0033239 -0.0068675 0.05842)
(-0.0029018 -0.0089574 0.058916)
(-0.0035054 -0.0068202 0.058647)
(-0.00030248 -0.011654 0.07003)
(-0.00047392 -0.0095914 0.06935)
(-0.00088566 -0.011365 0.070503)
(-0.0014317 -0.011787 0.06964)
(-0.012599 -0.005653 0.031562)
(-0.0089033 -0.0034225 0.039085)
(-0.0085912 -0.0057309 0.040902)
(-0.0083882 -0.0031856 0.040817)
(-0.0055277 -0.0030091 0.05245)
(-0.005288 -0.004942 0.054611)
(-0.0060723 -0.0041156 0.045701)
(-0.00015105 -0.0084402 0.070179)
(0.00077452 -0.0089104 0.072546)
(0.001594 -0.0092087 0.071267)
(-0.00023334 -0.0099101 0.070663)
(0.0016101 -0.0044733 0.061217)
(0.0046017 -0.0043663 0.061981)
(0.0034213 -0.0064575 0.063284)
(0.0027135 -0.0062105 0.065908)
(-0.0044846 -0.007382 0.048671)
(-0.0037146 -0.0061741 0.046796)
(-0.0021714 -0.0057524 0.051415)
(-0.0037132 -0.0066848 0.050884)
(-0.0028369 -0.0079116 0.055468)
(0.00080269 -0.0068653 0.056029)
(-0.003387 -0.0074862 0.058024)
(0.002602 0.0011319 0.041661)
(-0.001601 0.00038467 0.039703)
(0.00016517 -0.000476 0.03814)
(-0.0011242 -0.00078148 0.042756)
(-0.0014062 -0.0074453 0.047739)
(-0.0033592 -0.007859 0.054655)
(-0.011165 -0.010188 -0.011731)
(-0.016534 -0.014951 -0.0015144)
(-0.0091779 -0.0074992 -0.00088553)
(0.00074294 -0.0053274 0.025633)
(-0.00039553 -0.0068098 0.029859)
(-0.0027301 -0.0048349 0.030802)
(-0.0014279 -0.0055514 0.032605)
(-0.0021938 -0.0059892 0.037108)
(-0.0013243 -0.0069251 0.039321)
(-0.00076452 -0.0023741 0.029335)
(0.00041669 -0.0032557 0.03218)
(0.0026031 -0.0064618 0.035724)
(-0.002427 -0.0058481 0.026674)
(-0.0039055 -0.008016 0.037546)
(-0.0010247 -0.0079475 0.035936)
(0.0051936 -0.0022014 -0.025802)
(0.0017264 -0.0095167 -0.022245)
(0.0081717 0.00024475 -0.018525)
(-0.0003217 -0.0073544 0.047943)
(-0.0012877 -0.006146 0.048523)
(-0.001809 -0.0086329 0.054411)
(-0.021579 0.0044053 -0.0054846)
(-0.031682 0.010973 -0.025428)
(-0.031951 0.014259 -0.0071683)
(-0.002832 -0.0038769 0.041822)
(-0.00238 -0.00042732 0.036505)
(-0.0011931 -0.0062827 0.049946)
(-0.0018011 0.0013142 0.022528)
(-0.0033375 0.0059122 0.034872)
(0.00034804 -0.0022519 0.038767)
(0.0010972 -0.004128 0.046389)
(-0.0071635 -0.0038499 0.05838)
(-0.0079377 -0.0045472 0.058311)
(-0.0091331 -0.0059816 0.053753)
(-0.0048646 -0.0035899 0.050911)
(-0.0017571 -0.0099981 0.069046)
(-0.0027052 -0.0094057 0.069141)
(-0.0011689 -0.0099296 0.069909)
(-0.0011141 -0.010958 0.070367)
(-0.0042202 -0.010224 0.064288)
(-0.0056813 -0.010955 0.06051)
(-0.006716 -0.010771 0.062894)
(-0.0033748 -0.010251 0.060865)
(0.00028746 -0.0063236 0.051081)
(-0.0017763 -0.0057848 0.041202)
(-0.0023038 -0.0043094 0.049192)
(-1.2833e-05 -0.0044034 0.047874)
(0.0011794 -0.0056342 0.052791)
(0.00012101 -0.0043116 0.060056)
(0.0024515 -0.0057014 0.062216)
(-0.034819 0.013564 -0.030681)
(-0.036403 0.010546 -0.024177)
(-0.029366 0.0026817 -0.034582)
(-0.017035 0.0038761 -0.026698)
(-0.0053862 -0.0074251 0.055463)
(-0.0048336 -0.0086866 0.056615)
(-0.0039549 -0.0073847 0.050406)
(-0.0010926 -0.0069696 0.077129)
(0.0067399 -0.010292 0.063831)
(-0.001237 -0.010162 0.068793)
(0.0054657 -0.01195 0.071835)
(0.0035236 -0.010562 0.065594)
(-0.070187 0.010732 -0.034757)
(-0.059785 0.0076007 -0.033621)
(-0.085608 0.01366 -0.033042)
(-0.062032 0.0079649 -0.040863)
(0.0024235 -0.010397 0.030728)
(0.00035077 -0.0082942 0.043783)
(-0.0025084 -0.010826 0.032706)
(0.0038569 -0.011239 0.042613)
(-0.0073324 -0.0044492 0.03561)
(-0.0027982 -0.0061204 0.042432)
(-0.0028855 -0.0068244 0.053217)
(-0.0070149 -0.0037825 0.052142)
(-0.0064964 -0.0051558 0.048137)
(-0.0049735 -0.0038777 0.042933)
(-0.0017307 -0.002252 0.039058)
(-0.0023531 -0.007115 0.032596)
(-0.00032631 -0.0013934 0.05361)
(0.00023157 -0.0053677 0.046223)
(0.00088059 -0.0050773 0.052724)
(0.0012633 -0.0037344 0.046729)
(0.00059145 -0.0025927 0.033012)
(0.002975 -0.0027663 0.0265)
(0.002015 -0.0010606 0.044531)
(0.0040628 -0.0028052 0.041945)
(0.0043274 -0.0021228 0.048)
(0.0013238 -0.0069858 0.050107)
(0.00015736 -0.0058765 0.049645)
(-0.0064359 -0.0081537 0.065407)
(-0.0058108 -0.011221 0.065012)
(-0.0069695 -0.010506 0.066624)
(-0.0072963 -0.010497 0.065299)
(-0.0041703 -0.010179 0.069501)
(-0.0052139 -0.0091092 0.069344)
(-0.002722 -0.0092162 0.069906)
(-0.0042433 -0.0037967 0.038588)
(-0.0043111 -0.0049196 0.036511)
(-0.00035278 -0.0080553 0.067169)
(-0.00031361 -0.0082013 0.066057)
(0.0034029 -0.0037904 0.030648)
(0.0026643 -0.0031615 0.019283)
(0.0017668 -0.0018549 0.030528)
(0.0024434 -0.00055011 0.023848)
(-0.049961 0.00434 -0.020584)
(-0.054931 0.01244 -0.022061)
(-0.042238 0.011625 -0.03388)
(-0.0015927 -0.0064438 0.050757)
(-0.0043768 -0.0085636 0.030363)
(-0.0081215 -0.0013083 0.022681)
(-0.0047077 -0.001302 0.031923)
(-0.0067345 -0.004844 0.032341)
(-0.0040217 -0.0089188 0.06211)
(-0.001719 -0.0077413 0.063226)
(0.00066733 -0.0086223 0.067183)
(-0.0012348 -0.0084843 0.068582)
(-0.0027711 -0.0083967 0.067379)
(-0.0017274 -0.0088441 0.067108)
(-0.0018003 -0.0076157 0.067282)
(-0.0019838 -0.0071274 0.061914)
(-0.0023574 -0.0077436 0.057155)
(-0.0010005 -0.0056659 0.059923)
(0.0019509 -0.0088979 0.056807)
(-0.0043291 -0.010889 0.0607)
(-0.0047843 -0.0091297 0.064705)
(-0.0051234 -0.0092105 0.065144)
(-0.012287 -0.01228 0.035416)
(-0.0053011 0.0046352 0.040777)
(-0.0086499 -0.0073451 0.045827)