/*--------------------------------*- C++ -*----------------------------------*\\
| =========                 |                                                 |
| \\      /  F ield         | OpenFOAM: The Open Source CFD Toolbox           |
|  \\    /   O peration     | Version:  v1706                                 |
|   \\  /    A nd           | Web:      www.OpenFOAM.com                      |
|    \\/     M anipulation  |                                                 |
\\*---------------------------------------------------------------------------*/
FoamFile
{
    version     2.0;
    format      ascii;
    class       surfaceScalarField;
    location    "0.9";
    object      mdot_f;
}
// * * * * * * * * * * * * * * * * * * * * * * * * * * * * * * * * * * * * * //

dimensions      [1 0 -1 0 0 0 0]


internalField   nonuniform List<scalar>
560
(
-8.2975e-05
-0.1399
-8.5528e-05
-0.14238
-0.0002899
-0.14548
-0.00046958
-0.14755
-0.00053897
-0.14853
-0.00054842
-0.14892
-0.0004587
-0.14909
-0.00033482
-0.14912
-0.00017987
-0.14908
-0.14903
-0.0001972
-0.1397
-0.00031166
-0.14226
-0.00046958
-0.14532
-0.00059916
-0.14742
-0.00063486
-0.14849
-0.00061274
-0.14894
-0.00051759
-0.14919
-0.00037169
-0.14926
-0.00019451
-0.14925
-0.14922
-0.00033082
-0.13937
-0.00053305
-0.14205
-0.0007038
-0.14514
-0.00081775
-0.14731
-0.00081684
-0.14849
-0.00075265
-0.14899
-0.0006268
-0.14931
-0.00044377
-0.14944
-0.00022836
-0.14946
-0.14945
-0.00051212
-0.13885
-0.000818
-0.14174
-0.0010214
-0.14493
-0.0011282
-0.1472
-0.0010874
-0.14853
-0.00096667
-0.14911
-0.00078565
-0.14949
-0.00055079
-0.14967
-0.0002825
-0.14973
-0.14973
-0.00079621
-0.13805
-0.0012277
-0.14131
-0.0014496
-0.14471
-0.0015387
-0.1471
-0.0014461
-0.14863
-0.0012512
-0.1493
-0.00099596
-0.14975
-0.00069116
-0.14998
-0.00035234
-0.15007
-0.15009
-0.0012214
-0.13683
-0.0017846
-0.14075
-0.0019904
-0.14451
-0.0020505
-0.14705
-0.0018953
-0.14878
-0.0016133
-0.14959
-0.001266
-0.15009
-0.00086787
-0.15038
-0.00043916
-0.15049
-0.15053
-0.0017305
-0.1351
-0.0024753
-0.14001
-0.0026728
-0.14432
-0.0027067
-0.14701
-0.0024787
-0.14901
-0.0020777
-0.15
-0.0016022
-0.15058
-0.0010855
-0.1509
-0.00054657
-0.15104
-0.15108
-0.0022403
-0.13286
-0.0034975
-0.13876
-0.0037629
-0.14406
-0.0036934
-0.14709
-0.0032927
-0.14942
-0.0026793
-0.15062
-0.0020095
-0.15125
-0.0013357
-0.15158
-0.00066521
-0.15171
-0.15174
-0.0035433
-0.12932
-0.0058982
-0.13642
-0.0059121
-0.14405
-0.0052656
-0.14775
-0.0043777
-0.15032
-0.0033901
-0.15161
-0.0024501
-0.1522
-0.0015859
-0.15245
-0.0007779
-0.15252
-0.15253
-0.0095194
-0.11981
-0.011125
-0.13483
-0.0093663
-0.14582
-0.0072645
-0.14986
-0.0055162
-0.15208
-0.0040402
-0.1531
-0.0028088
-0.15344
-0.0017723
-0.15349
-0.0008578
-0.15345
-0.15339
0.020647
-0.14047
0.024651
-0.13885
0.025452
-0.14664
0.024147
-0.14857
0.021326
-0.14926
0.017702
-0.14948
0.013594
-0.14933
0.0091883
-0.1491
0.0046242
-0.14889
-0.14877
0.012325
-0.1528
0.017299
-0.14384
0.018746
-0.14809
0.018153
-0.14798
0.016244
-0.14736
0.013581
-0.14683
0.010475
-0.14624
0.0071016
-0.14573
0.0035817
-0.14538
-0.14519
0.0072257
-0.16004
0.011607
-0.14823
0.012933
-0.14943
0.012719
-0.14778
0.0115
-0.14615
0.009673
-0.14501
0.0074867
-0.14406
0.0050877
-0.14334
0.0025694
-0.14287
-0.14263
0.0037055
-0.16375
0.0069233
-0.15146
0.007789
-0.1503
0.0077365
-0.14774
0.0070512
-0.14548
0.0059544
-0.14392
0.0046186
-0.14273
0.0031424
-0.14187
0.0015872
-0.14132
-0.14104
0.000905
-0.16466
0.0027382
-0.1533
0.0030639
-0.15064
0.003053
-0.14773
0.002806
-0.14524
0.0023706
-0.14349
0.0018353
-0.1422
0.0012454
-0.14129
0.00062704
-0.14071
-0.14042
-0.0015973
-0.16307
-0.0012676
-0.15364
-0.0014524
-0.15046
-0.0014713
-0.14772
-0.0013388
-0.14538
-0.0011527
-0.14369
-0.00091401
-0.14245
-0.00063422
-0.14158
-0.0003261
-0.14102
-0.14075
-0.0041328
-0.15894
-0.0053191
-0.15246
-0.005975
-0.14981
-0.0060063
-0.14769
-0.0055175
-0.14587
-0.0047153
-0.1445
-0.0036967
-0.14347
-0.0025365
-0.14275
-0.0012905
-0.14228
-0.14204
-0.0068714
-0.15207
-0.0096638
-0.14967
-0.010858
-0.14862
-0.010859
-0.1477
-0.0099471
-0.14679
-0.0084558
-0.14599
-0.0065959
-0.14534
-0.0045072
-0.14484
-0.0022861
-0.1445
-0.14433
-0.01052
-0.14155
-0.015316
-0.14488
-0.016898
-0.14704
-0.016513
-0.14809
-0.014884
-0.14842
-0.012506
-0.14837
-0.0096775
-0.14817
-0.0065779
-0.14794
-0.0033249
-0.14776
-0.14766
-0.019328
-0.12223
-0.024633
-0.13958
-0.025026
-0.14666
-0.023295
-0.14982
-0.020434
-0.15129
-0.016899
-0.15191
-0.01295
-0.15212
-0.0087501
-0.15215
-0.0044072
-0.15211
-0.15207
0.011317
-0.13355
0.011831
-0.1401
0.010195
-0.14502
0.0082091
-0.14784
0.0063497
-0.14943
0.0047321
-0.1503
0.0033421
-0.15074
0.0021283
-0.15094
0.001032
-0.15102
-0.15104
0.0055817
-0.13913
0.0074162
-0.14193
0.0072197
-0.14483
0.0063019
-0.14692
0.0051632
-0.14829
0.0040087
-0.14915
0.0029139
-0.14964
0.0018919
-0.14992
0.00092851
-0.15006
-0.15011
0.003074
-0.14221
0.0046649
-0.14352
0.0050163
-0.14518
0.0046915
-0.1466
0.0040417
-0.14765
0.0032557
-0.14836
0.0024299
-0.14882
0.0016063
-0.1491
0.00079682
-0.14925
-0.14931
0.001828
-0.14403
0.0030031
-0.1447
0.0034687
-0.14565
0.0034288
-0.14656
0.0030807
-0.1473
0.0025617
-0.14784
0.0019569
-0.14822
0.0013144
-0.14846
0.00065821
-0.14859
-0.14865
0.001146
-0.14518
0.0019766
-0.14553
0.0023995
-0.14607
0.0024744
-0.14663
0.0023001
-0.14712
0.0019637
-0.14751
0.00153
-0.14778
0.0010418
-0.14797
0.00052602
-0.14808
-0.14813
0.00074183
-0.14592
0.0013192
-0.14611
0.0016571
-0.14641
0.0017633
-0.14674
0.0016832
-0.14704
0.0014679
-0.14729
0.0011623
-0.14748
0.00080054
-0.14761
0.00040697
-0.14768
-0.14772
0.00048571
-0.14641
0.00088058
-0.1465
0.0011322
-0.14666
0.0012325
-0.14684
0.0012003
-0.14701
0.0010642
-0.14716
0.00085353
-0.14727
0.00059321
-0.14735
0.00030324
-0.1474
-0.14742
0.00031297
-0.14672
0.00057442
-0.14676
0.00075017
-0.14684
0.00082967
-0.14692
0.00081966
-0.147
0.0007357
-0.14707
0.00059573
-0.14713
0.00041691
-0.14717
0.00021404
-0.14719
-0.1472
0.0001885
-0.14691
0.00034853
-0.14692
0.00045953
-0.14695
0.00051337
-0.14697
0.00051193
-0.147
0.00046313
-0.14702
0.00037737
-0.14704
0.0002653
-0.14705
0.00013661
-0.14706
-0.14707
9.0394e-05
0.00016764
0.00022188
0.00024883
0.00024897
0.00022586
0.00018439
0.00012976
6.6785e-05
)
;

boundaryField
{
    bump
    {
        type             calculated;
        value            uniform 0;
    }
    outlet
    {
        type             calculated;
        value            nonuniform List<scalar>
10
(
0.14886
0.14893
0.149
0.14902
0.14895
0.14863
0.14775
0.14575
0.14254
0.14022
)
;
    }
    inlet
    {
        type             calculated;
        value            nonuniform List<scalar>
10
(
-0.147
-0.147
-0.147
-0.147
-0.147
-0.147
-0.147
-0.147
-0.147
-0.147
)
;
    }
    side1
    {
        type             calculated;
        value            uniform 0;
    }
    side2
    {
        type             calculated;
        value            uniform 0;
    }
    symmetry
    {
        type             calculated;
        value            uniform 0;
    }
    top
    {
        type             calculated;
        value            uniform 0;
    }
}

// ************************************************************************* //
