/*--------------------------------*- C++ -*----------------------------------*\\
| =========                 |                                                 |
| \\      /  F ield         | OpenFOAM: The Open Source CFD Toolbox           |
|  \\    /   O peration     | Version:  v1706                                 |
|   \\  /    A nd           | Web:      www.OpenFOAM.com                      |
|    \\/     M anipulation  |                                                 |
\\*---------------------------------------------------------------------------*/
FoamFile
{
    version     2.0;
    format      ascii;
    class       volScalarField;
    location    "0.9";
    object      p;
}
// * * * * * * * * * * * * * * * * * * * * * * * * * * * * * * * * * * * * * //

dimensions      [1 -1 -2 0 0 0 0]


internalField   nonuniform List<scalar>
300
(
8.4008
4.2152
7.8027
6.6114
4.9004
3.4172
-0.060004
-1.6763
-2.6297
-3.231
24.9561
16.0345
17.9639
14.2667
9.68
6.2389
0.0099905
-3.7465
-5.9684
-7.2607
50.4019
34.025
30.1222
21.1945
12.2717
6.8036
-1.6308
-7.4384
-10.8824
-12.782
78.3498
52.7069
41.3831
26.0028
11.5555
4.0205
-6.0026
-13.6044
-18.1462
-20.5368
99.3394
65.2577
48.9724
28.6515
8.0505
-2.0198
-13.3738
-22.5845
-28.1719
-31.0298
113.1175
72.0344
54.6659
31.8708
3.7604
-10.723
-23.9398
-34.7709
-41.4017
-44.707
151.7456
92.831
66.9228
38.8801
-0.4891
-22.6486
-38.7287
-51.1151
-58.5414
-62.1092
284.6233
160.5467
88.9212
43.4547
-10.5025
-41.8135
-60.3082
-73.0314
-80.3121
-83.6836
518.8901
258.6704
90.4562
20.546
-40.3351
-74.8978
-91.6873
-101.6557
-106.9379
-109.291
547.5216
236.4077
4.6358
-60.1899
-101.8701
-125.2666
-133.162
-136.3288
-137.4259
-137.8323
-191.4272
-67.4046
-190.1035
-192.8589
-188.0921
-186.9054
-179.9246
-173.4831
-169.0389
-166.9575
-688.1963
-340.6003
-359.483
-309.7459
-266.7306
-243.0359
-222.5271
-207.468
-197.8657
-193.3054
-1018.6318
-569.3845
-497.7952
-408.3337
-333.8587
-289.9036
-257.271
-234.7037
-220.6284
-213.8742
-1201.7363
-725.3924
-583.3377
-472.7311
-378.5245
-320.2176
-278.9976
-251.1847
-234.0296
-225.7668
-1254.5042
-805.0398
-611.4076
-494.4491
-393.6449
-328.7543
-283.8944
-254.0065
-235.7181
-226.9233
-1181.7086
-807.1998
-583.1243
-469.8113
-375.3252
-312.7975
-270.2131
-242.0589
-224.9256
-216.6951
-949.4925
-709.509
-492.7513
-396.7798
-322.8154
-272.9267
-239.0399
-216.5505
-202.8074
-196.1374
-483.3308
-462.7873
-327.756
-277.5163
-240.7029
-213.8999
-194.4754
-180.8732
-172.228
-167.8382
214.3134
-67.5904
-105.4746
-132.8455
-143.8642
-145.4784
-143.1659
-139.8537
-137.0312
-135.2318
765.7489
277.5628
82.4826
-9.2522
-56.4379
-80.6812
-92.8099
-98.5837
-101.072
-101.7209
467.4198
280.4052
139.7166
54.658
2.1333
-30.1985
-49.7276
-61.1703
-67.4003
-69.9812
320.098
238.9851
151.1265
84.3431
37.182
4.8969
-16.5419
-30.1965
-38.1792
-41.7514
235.4283
195.5815
142.8311
95.0939
57.0936
28.6476
8.3337
-5.3922
-13.7923
-17.6992
183.8334
162.2478
129.8828
96.7524
67.6876
44.2314
26.4481
13.8507
5.8667
2.0532
151.0014
138.3234
117.7239
94.7229
72.9591
54.2727
39.3814
28.4138
21.261
17.7726
129.5307
121.5526
107.8846
91.6498
75.372
60.6787
48.4775
39.1951
32.9955
29.9207
115.3477
109.9975
100.5
88.7056
76.3459
64.7375
54.7679
46.9763
41.669
39
106.1647
102.3224
95.3338
86.3714
76.6616
67.2561
58.9588
52.3328
47.7465
45.4134
100.8053
97.7784
92.1863
84.8574
76.7301
68.6822
61.4457
55.577
51.4681
49.3604
98.65
95.9345
90.8946
84.2213
76.7372
69.2475
62.4513
56.8998
52.9929
50.9834
)
;

boundaryField
{
    bump
    {
        type             zeroGradient;
    }
    outlet
    {
        type             fixedValue;
        value            uniform 0;
    }
    inlet
    {
        type             zeroGradient;
    }
    side1
    {
        type             empty;
    }
    side2
    {
        type             empty;
    }
    symmetry
    {
        type             symmetry;
    }
    top
    {
        type             symmetry;
    }
}

// ************************************************************************* //
