/*--------------------------------*- C++ -*----------------------------------*\\
| =========                 |                                                 |
| \\      /  F ield         | OpenFOAM: The Open Source CFD Toolbox           |
|  \\    /   O peration     | Version:  v1706                                 |
|   \\  /    A nd           | Web:      www.OpenFOAM.com                      |
|    \\/     M anipulation  |                                                 |
\\*---------------------------------------------------------------------------*/
FoamFile
{
    version     2.0;
    format      ascii;
    class       volVectorField;
    location    "0.9";
    object      U;
}
// * * * * * * * * * * * * * * * * * * * * * * * * * * * * * * * * * * * * * //

dimensions      [0 1 -1 0 0 0 0]


internalField   nonuniform List<vector>
300
(
(57.2309 -0.1768 0.014047)
(58.1795 0.065494 0.0096798)
(59.4894 0.00026918 0.0054449)
(60.3055 -0.24945 0.0033377)
(60.6646 -0.15479 0.0020502)
(60.7964 -0.26858 0.0012353)
(60.8265 -0.19022 0.0007316)
(60.816 -0.15438 0.00056792)
(60.7864 -0.10588 0.0022099)
(60.7577 -0.038055 0.002294)
(57.1261 -0.22969 0.013966)
(58.1347 0.0070763 0.0096117)
(59.3667 -0.044774 0.0054757)
(60.1912 -0.31401 0.0033908)
(60.5949 -0.1898 0.0021138)
(60.7598 -0.30298 0.0013036)
(60.8511 -0.22229 0.00080205)
(60.8697 -0.17217 0.00063741)
(60.8601 -0.11608 0.0022191)
(60.8446 -0.041508 0.0023056)
(56.9461 -0.30581 0.013741)
(58.0158 -0.073806 0.0094048)
(59.2726 -0.10337 0.0053654)
(60.1324 -0.41247 0.0033009)
(60.5801 -0.25919 0.0020333)
(60.7688 -0.36723 0.0012273)
(60.8889 -0.28287 0.0007274)
(60.9294 -0.20928 0.00056108)
(60.9333 -0.13784 0.0020809)
(60.9254 -0.049203 0.002169)
(56.7104 -0.41701 0.013597)
(57.8667 -0.20686 0.0092831)
(59.1759 -0.20122 0.0053376)
(60.0851 -0.55805 0.0032909)
(60.5881 -0.36765 0.0020308)
(60.8023 -0.45939 0.0012274)
(60.9469 -0.3696 0.00072808)
(61.0093 -0.26549 0.00055863)
(61.0264 -0.17089 0.0020153)
(61.0253 -0.060875 0.0021042)
(56.4674 -0.57672 0.013468)
(57.7286 -0.41434 0.0091778)
(59.0934 -0.35114 0.0053215)
(60.0515 -0.76161 0.003289)
(60.6215 -0.52199 0.0020335)
(60.8657 -0.5779 0.0012311)
(61.0323 -0.4799 0.00073093)
(61.1171 -0.34023 0.0005565)
(61.1474 -0.21393 0.0019493)
(61.1523 -0.075625 0.0020385)
(56.234 -0.79179 0.013358)
(57.6127 -0.6975 0.0090936)
(59.0208 -0.54089 0.0053196)
(60.0156 -1.0226 0.0032961)
(60.6683 -0.73032 0.002042)
(60.9583 -0.72571 0.0012383)
(61.1503 -0.61384 0.0007358)
(61.2579 -0.43415 0.00055427)
(61.3022 -0.26735 0.0018829)
(61.3136 -0.09356 0.0019717)
(55.7914 -1.0714 0.013273)
(57.3833 -1.0587 0.0090348)
(58.8937 -0.75488 0.0053334)
(59.9449 -1.3437 0.003313)
(60.7176 -1.0142 0.0020563)
(61.0858 -0.91788 0.001249)
(61.3126 -0.77474 0.00074241)
(61.4428 -0.5476 0.00055143)
(61.4998 -0.33195 0.0018161)
(61.5164 -0.11505 0.0019041)
(54.4547 -1.5035 0.013216)
(56.6988 -1.6476 0.0090047)
(58.6397 -1.0789 0.0053644)
(59.8609 -1.7763 0.0033402)
(60.8059 -1.4195 0.0020765)
(61.2815 -1.18 0.0012628)
(61.5449 -0.96785 0.00075035)
(61.6898 -0.67831 0.00054742)
(61.7514 -0.40409 0.0017486)
(61.7683 -0.13832 0.0018357)
(51.6319 -2.4326 0.013189)
(55.4307 -3.0612 0.0090118)
(58.4354 -1.8483 0.0054175)
(59.9654 -2.4308 0.0033795)
(61.062 -1.9795 0.0021028)
(61.6159 -1.516 0.0012794)
(61.884 -1.1812 0.00075913)
(62.0147 -0.81219 0.00054174)
(62.0627 -0.47441 0.0016804)
(62.0719 -0.16022 0.0017665)
(49.443 -4.4205 0.013217)
(54.6996 -6.2445 0.0090927)
(58.9309 -3.4653 0.0055054)
(60.6196 -3.3116 0.0034339)
(61.6504 -2.6103 0.002135)
(62.1531 -1.8599 0.0012977)
(62.3514 -1.3656 0.00076775)
(62.4202 -0.91606 0.00053384)
(62.4282 -0.52589 0.0016111)
(62.4182 -0.17577 0.0016965)
(55.0089 -6.8797 0.013287)
(56.7609 -10.516 0.0091877)
(60.7407 -5.5207 0.0055673)
(61.9965 -4.0543 0.0034568)
(62.6069 -3.0541 0.0021405)
(62.8756 -2.0736 0.0012967)
(62.9173 -1.4475 0.00076399)
(62.8796 -0.94877 0.00051739)
(62.8245 -0.53756 0.0015371)
(62.7857 -0.17846 0.001626)
(63.771 -6.0312 0.012825)
(61.0256 -11.0763 0.0082407)
(63.5295 -5.5301 0.0047466)
(63.8188 -3.7942 0.0029361)
(63.7797 -2.841 0.0018102)
(63.6831 -1.8709 0.0010959)
(63.507 -1.2833 0.00065285)
(63.3383 -0.83067 0.00046771)
(63.2111 -0.46784 0.0015104)
(63.1415 -0.15261 0.0015505)
(69.5142 -3.7708 0.011727)
(64.6687 -9.2619 0.0071124)
(65.7993 -4.6987 0.0039307)
(65.3194 -2.9704 0.0024339)
(64.7675 -2.2712 0.0014903)
(64.3661 -1.4553 0.00090123)
(64.0061 -0.98227 0.0005436)
(63.7256 -0.6274 0.00041578)
(63.535 -0.35156 0.0014604)
(63.4369 -0.11228 0.0014639)
(73.0524 -0.93054 0.010284)
(67.4933 -5.9861 0.0058302)
(67.4336 -3.2712 0.0031685)
(66.4215 -1.7253 0.001986)
(65.4984 -1.4041 0.0012242)
(64.8613 -0.85742 0.00074962)
(64.36 -0.56332 0.00045996)
(63.9945 -0.35101 0.00037575)
(63.7557 -0.19493 0.0013951)
(63.6354 -0.059854 0.0013725)
(74.7276 2.0459 0.0094697)
(69.2483 -1.929 0.0049769)
(68.2922 -1.4256 0.0027243)
(67.0016 -0.24778 0.001718)
(65.8786 -0.33658 0.0010657)
(65.0998 -0.13463 0.00066319)
(64.5169 -0.063702 0.0004138)
(64.1041 -0.025447 0.00035475)
(63.8394 -0.01135 0.0013201)
(63.7074 0.00028899 0.00128)
(74.7065 4.8485 0.009355)
(69.8491 2.3632 0.0047892)
(68.349 0.71632 0.0026371)
(66.9971 1.2851 0.0016598)
(65.852 0.81526 0.0010291)
(65.0409 0.64047 0.0006441)
(64.4478 0.46695 0.00040395)
(64.0328 0.31749 0.00035111)
(63.7687 0.18108 0.0012374)
(63.6375 0.062607 0.0011884)
(72.9198 7.2215 0.008739)
(69.122 6.3587 0.0045761)
(67.5663 3.0151 0.0024484)
(66.3703 2.7356 0.0015206)
(65.3888 1.9163 0.00094166)
(64.6726 1.3823 0.00058741)
(64.1494 0.96915 0.00036749)
(63.7818 0.63996 0.00032498)
(63.5469 0.36143 0.001136)
(63.4294 0.12104 0.0010938)
(68.8015 8.7824 0.0063772)
(66.7644 9.5013 0.0035196)
(65.8393 5.1401 0.0017577)
(65.1195 3.943 0.0010692)
(64.5085 2.8018 0.00067509)
(64.0251 1.9844 0.00042612)
(63.652 1.3756 0.0002678)
(63.3785 0.90141 0.00025185)
(63.1986 0.50821 0.0010177)
(63.1063 0.16887 0.00099533)
(61.7705 8.9181 0.0030288)
(62.6627 10.8337 0.001913)
(63.263 6.4773 0.00087015)
(63.415 4.623 0.00053425)
(63.3515 3.2987 0.0003686)
(63.199 2.3421 0.000247)
(63.0279 1.6283 0.00015842)
(62.8769 1.0698 0.0001649)
(62.767 0.60545 0.00090079)
(62.7065 0.20092 0.0008999)
(53.8425 6.8573 0.0010146)
(58.2993 9.1465 0.00089273)
(60.6866 6.2626 0.00030939)
(61.7425 4.518 0.00018052)
(62.1934 3.3143 0.0001394)
(62.3524 2.4105 0.00010097)
(62.3749 1.7053 6.6592e-05)
(62.3432 1.1337 7.96e-05)
(62.3025 0.64711 0.0007936)
(62.2738 0.21462 0.00081113)
(52.473 2.6582 0.00069691)
(57.0052 4.9326 0.00073309)
(59.4239 4.6679 0.00014443)
(60.673 3.8038 3.751e-05)
(61.322 2.9758 2.2025e-05)
(61.6432 2.255 1.5717e-05)
(61.7864 1.6386 1.0066e-05)
(61.8384 1.1084 5.9967e-06)
(61.8497 0.63926 0.00070161)
(61.8468 0.21076 0.00073285)
(55.8516 1.2576 0.00065682)
(57.6407 2.7781 0.00065418)
(59.1377 3.0911 6.9574e-05)
(60.1156 2.8135 5.3102e-06)
(60.7216 2.3621 3.4127e-07)
(61.0793 1.8792 2.58e-08)
(61.2779 1.4135 -9.9634e-09)
(61.3802 0.97911 -2.1232e-08)
(61.4277 0.57368 0.00063493)
(61.4443 0.19037 0.00066013)
(57.5158 0.67447 0.0005849)
(58.3049 1.6476 0.00058358)
(59.19 2.0399 3.968e-05)
(59.8857 2.0245 2.1547e-06)
(60.3738 1.807 1.2863e-07)
(60.6941 1.502 1.3113e-08)
(60.8921 1.1662 -1.3063e-08)
(61.007 0.82593 -2.5139e-08)
(61.0678 0.49102 0.00056953)
(61.0927 0.16389 0.00058692)
(58.4721 0.39419 0.0005124)
(58.8544 1.0232 0.00051171)
(59.3628 1.3605 2.2229e-05)
(59.8231 1.4392 8.7143e-07)
(60.1808 1.3499 6.3332e-08)
(60.4357 1.1648 8.9195e-09)
(60.6055 0.92982 -1.5063e-08)
(60.7112 0.67162 -2.8173e-08)
(60.771 0.4045 0.00050225)
(60.7971 0.13571 0.00051364)
(59.0572 0.24427 0.00043958)
(59.2538 0.65831 0.00043922)
(59.5446 0.91784 1.2151e-05)
(59.8354 1.0167 3.659e-07)
(60.0803 0.99118 4.3887e-08)
(60.2665 0.88184 7.092e-09)
(60.3977 0.72054 -1.6505e-08)
(60.4835 0.52927 -3.0617e-08)
(60.5341 0.32235 0.00043329)
(60.557 0.10864 0.00044033)
(59.4308 0.15688 0.00036658)
(59.5345 0.43284 0.00036639)
(59.6986 0.62285 6.3781e-06)
(59.8745 0.71293 1.7267e-07)
(60.0316 0.71569 3.8012e-08)
(60.1573 0.65232 6.0359e-09)
(60.2496 0.54321 -1.7576e-08)
(60.3123 0.40459 -3.2579e-08)
(60.3504 0.24872 0.00036294)
(60.368 0.084143 0.00036698)
(59.675 0.10214 0.00029345)
(59.7287 0.286 0.00029336)
(59.8176 0.42026 3.1364e-06)
(59.9173 0.49229 1.0216e-07)
(60.0103 0.50496 3.608e-08)
(60.0875 0.46884 5.3536e-09)
(60.146 0.39626 -1.834e-08)
(60.1868 0.29842 -3.4092e-08)
(60.212 0.18483 0.00029151)
(60.2239 0.062717 0.00029361)
(59.8347 0.065517 0.00022023)
(59.8602 0.18514 0.00022018)
(59.9038 0.2758 1.3939e-06)
(59.9541 0.32824 7.842e-08)
(60.0024 0.34189 3.5352e-08)
(60.0435 0.32174 4.9476e-09)
(60.0753 0.27496 -1.8818e-08)
(60.0979 0.2088 -3.516e-08)
(60.112 0.13006 0.00021928)
(60.1187 0.044233 0.00022022)
(59.9339 0.03924 0.00014693)
(59.9437 0.11146 0.00014691)
(59.9607 0.16742 5.3737e-07)
(59.9808 0.20129 7.1583e-08)
(60.0002 0.21179 3.5136e-08)
(60.0171 0.20111 4.8388e-09)
(60.0303 0.17314 -1.8968e-08)
(60.0397 0.13223 -3.5733e-08)
(60.0457 0.082671 0.00014649)
(60.0485 0.028154 0.00014682)
(59.9853 0.018452 5.3779e-08)
(59.9874 0.052674 4.3512e-08)
(59.9912 0.07947 -7.3306e-05)
(59.9956 0.096061 -7.3412e-05)
(60 0.1016 -7.3434e-05)
(60.0038 0.096913 -7.3452e-05)
(60.0068 0.083737 -7.3467e-05)
(60.0089 0.064106 -7.3477e-05)
(60.0102 0.040139 -1.0249e-07)
(60.0109 0.013636 -4.0779e-08)
)
;

boundaryField
{
    bump
    {
        type             noSlip;
    }
    outlet
    {
        type             zeroGradient;
    }
    inlet
    {
        type             fixedValue;
        value            uniform (60 0 0);
    }
    side1
    {
        type             empty;
    }
    side2
    {
        type             empty;
    }
    symmetry
    {
        type             symmetry;
    }
    top
    {
        type             symmetry;
    }
}

// ************************************************************************* //
