/*--------------------------------*- C++ -*----------------------------------*\\
| =========                 |                                                 |
| \\      /  F ield         | OpenFOAM: The Open Source CFD Toolbox           |
|  \\    /   O peration     | Version:  v1706                                 |
|   \\  /    A nd           | Web:      www.OpenFOAM.com                      |
|    \\/     M anipulation  |                                                 |
\\*---------------------------------------------------------------------------*/
FoamFile
{
    version     2.0;
    format      ascii;
    class       surfaceScalarField;
    location    "0.45";
    object      mdot_f;
}
// * * * * * * * * * * * * * * * * * * * * * * * * * * * * * * * * * * * * * //

dimensions      [1 0 -1 0 0 0 0]


internalField   nonuniform List<scalar>
906
(
-0.024996
0.018302
0.0038572
0.002837
-0.0046044
-0.01944
-0.00095172
-0.030436
0.034169
0.019578
-0.023311
0.035361
-0.031923
-0.033873
0.0056882
0.064677
-0.06383
-0.0065353
0.0027876
-0.065088
0.067989
-0.038662
0.036783
-0.001618
0.0034977
-0.022594
0.015821
-0.03189
-0.069983
0.043384
-0.0089767
0.035576
-0.0021116
0.0018532
-0.069724
0.055564
-0.011043
0.013615
-0.058135
0.015903
-0.0056822
0.045342
-0.024148
-0.017624
0.0082264
0.033545
-0.029631
0.035283
-0.0298
0.04647
-0.011425
0.075512
-0.063907
0.0042984
0.00023851
0.071773
0.0035001
-0.0049777
-0.069972
0.021344
-0.014083
-0.0072611
-0.0029414
0.024285
0.014597
-0.021525
-0.0071554
0.036904
-0.01924
0.016995
-0.034658
0.039566
0.02857
-0.031232
0.038005
-0.021852
-0.029244
0.013091
0.041904
0.025701
-0.0296
0.032486
-0.0098227
-0.02067
0.01982
0.044233
-0.067628
0.052991
-0.0060331
-0.067546
-0.0021933
-0.0028806
0.0046818
0.018889
-0.02069
0.0054803
0.0028683
-0.011229
0.049411
-0.031663
0.024278
-0.042026
0.051565
0.01146
-0.050233
0.012228
0.011554
-0.040993
0.064147
0.012207
-0.025961
-0.041117
0.026084
-0.041029
-0.016855
0.0086296
0.044966
-0.0096936
-0.043902
0.035581
-0.0036621
-0.02329
0.0023581
0.037905
0.058029
-0.010705
0.03619
0.0097051
-0.019599
-0.0072035
0.017097
-0.017501
0.024935
0.0022717
-0.02321
-0.01389
-0.0036538
0.05833
0.0094716
0.023242
0.00018953
-0.030635
0.020897
0.019441
0.047033
0.0070212
-0.0075841
-0.041133
0.046528
0.015502
0.0060901
0.0027045
0.0027066
0.0028967
-0.041221
-0.024374
0.00056359
-0.010062
-0.048395
0.026917
0.034744
0.0096326
0.009024
0.040351
0.0019539
-0.013494
0.041772
0.0024062
-0.0022686
-0.0048996
0.0063541
0.041975
0.00080572
0.0085227
-0.039024
0.012076
0.042769
0.0074036
0.02164
0.0051365
0.043072
-0.0019414
-0.046267
0.039685
0.0022346
0.0010994
0.042966
-0.00099308
0.039142
0.0016421
0.0009059
0.042503
-0.00044378
0.038815
0.0012325
0.00039374
0.042349
-0.00023959
0.038882
0.00032732
0.00036835
0.0422
-0.00021908
0.038953
0.00029667
-8.1888e-05
0.042487
-0.00020486
0.039142
-0.00027048
-8.3849e-05
0.042353
0.00021806
0.039334
-0.00027581
-3.4817e-05
0.042672
-0.00028434
0.03967
-0.00037131
-4.9061e-05
-3.8309e-05
0.042759
0.039571
5.0176e-05
-0.069366
0.0064703
0.065683
0.0054509
-0.066241
-0.0042984
-0.067622
0.0037067
0.0034644
-0.0037745
-0.065931
0.0026787
-0.066836
-0.0644
-0.0037279
-0.065255
-0.0029197
0.06369
0.0017421
0.068439
0.0073274
0.063579
0.0029185
0.062075
0.00051119
0.061181
0.00044999
0.060762
0.00017985
0.0603
0.00024216
0.060365
-0.00026958
0.06082
-0.0002367
0.060901
-0.00036507
0.060589
0.00027364
0.070827
-0.00020655
-0.00020076
0.039979
-0.0001014
0.042654
-0.00066781
0.061155
-0.068049
0.068588
0.0031679
-0.067394
0.0020238
-0.0020578
0.001403
-0.066739
-0.0024262
-0.066468
-0.0023177
-0.066039
-0.06585
-0.0017223
0.069555
0.010415
0.064094
0.0038424
0.064287
0.0020422
0.063708
0.0022205
0.063392
0.0015484
0.062974
0.00074552
0.06283
0.00044117
0.063149
-0.00058935
0.063575
-0.00070244
0.063226
-2.2253e-05
0.062953
0.00032323
-0.00063104
0.063383
0.072808
0.074771
0.005364
0.074465
0.0032253
0.072857
0.0021186
0.072248
0.0010595
0.071824
0.0006037
0.071658
0.00040815
0.071642
-0.00025396
0.071634
-0.00022819
0.071052
0.00021637
0.071443
-0.00011747
0.071714
-0.00093827
0.0056791
0.069379
0.057077
-0.077031
0.021807
0.0088514
0.039249
-0.070009
-0.0013433
-0.067969
0.0011284
-0.067399
0.0014541
-0.066798
0.00080107
-0.001046
0.0006355
-0.066387
-0.0014113
-0.066374
-0.0015944
-0.066285
-0.0011014
-0.066532
-0.00085178
-0.0661
0.06571
-0.066376
-0.00018499
0.065
-0.001013
0.06405
-0.001969
0.063721
-0.0033998
0.061214
-0.0040282
0.055143
-0.0053536
0.050215
-0.0026568
0.052622
0.0036838
0.050665
0.0046629
0.066461
0.010288
0.067025
0.0089082
0.071359
0.0060803
0.071563
0.0036387
0.070583
0.0030214
0.071122
0.001682
0.071221
0.0014487
0.071429
0.0005384
0.071467
0.00040248
0.071652
-0.00077412
0.071779
-0.00082928
0.071521
0.00023524
0.071521
0.00032358
0.071625
-0.00073465
0.00045195
-0.00038264
0.071555
0.00034041
0.063495
0.00029081
0.040028
-0.00013846
0.043083
-0.00011618
0.061133
0.071575
2.2459e-05
-0.0041249
0.042314
0.013484
0.048074
0.045789
0.037075
0.036129
0.031467
0.023066
0.021914
0.027327
0.034988
0.028002
0.0349
-0.070077
-0.00099093
-0.068698
-0.00024988
-0.067729
0.00048467
-0.067269
0.00034084
-0.066918
0.00028467
-0.00085879
-0.06623
0.00017054
-0.00058351
-0.066662
-0.00033296
-0.066625
-1.7256e-05
-0.0666
4.5914e-05
-0.066596
0.00021581
-0.06627
0.00041716
-0.066578
0.0661
-0.066587
0.00090433
0.06575
0.00016491
0.065239
-0.00050132
0.064925
-0.0016554
0.06373
-0.0022042
0.062536
-0.0028348
0.059662
-0.0024795
0.057745
-0.00073994
0.057083
0.0043462
0.060986
0.00075924
0.066322
0.004953
0.070044
0.0051865
0.072097
0.0040269
0.072671
0.0030645
0.07363
0.0020625
0.073528
0.0017838
0.073765
0.0012123
0.074254
4.8773e-05
0.075221
-0.00056373
0.074518
-7.15e-05
0.07421
-0.00052139
0.074679
-0.00023362
0.074362
0.00064085
0.07365
-2.3108e-05
0.074193
-0.00092592
0.00049116
-0.00014265
0.073845
0.00038715
0.071659
0.00020584
0.063676
-1.2916e-05
0.040247
-3.0484e-05
0.043101
8.5424e-05
0.061017
-0.00022181
0.071882
-0.074491
-0.00014776
0.074417
-0.073626
-0.00084226
-0.074517
-4.7066e-05
-0.07457
-6.5335e-05
-0.074267
-8.6636e-05
-0.074379
-0.00011549
-0.074475
-0.00015842
-0.074512
0.00044508
-0.074641
0.00073308
-0.07486
0.0012785
-0.074949
0.0022073
-0.074599
0.0028756
0.0025381
-0.036552
-0.0028191
0.06687
-0.065917
-0.0059308
0.06978
0.0013888
0.07152
0.0017598
0.072306
0.001752
0.073684
0.0014976
0.074694
0.0011974
0.074773
0.0011991
0.07521
0.00029655
0.075765
-0.00010963
0.075689
-8.2574e-05
0.075634
-6.0775e-05
0.075592
-4.5071e-05
0.075561
-3.3762e-05
0.075539
-2.5212e-05
0.074715
-1.8503e-05
0.074582
-1.4734e-05
-0.00013101
0.00057975
-0.066678
-0.00012789
-0.066665
-9.9086e-05
-0.066653
-5.3828e-05
-0.066646
-5.2703e-06
-0.066644
0.00037362
-0.066649
0.00045328
-0.066657
0.00053318
-0.066667
0.066531
0.00067762
-0.066676
0.06738
5.5082e-05
0.067449
9.6415e-05
0.066784
0.00016363
0.065798
-0.00066979
0.0647
-0.0011063
0.062623
-0.00075733
0.060872
-0.00072884
0.060342
-0.00020976
0.063164
0.0015248
0.063251
0.00067185
0.066046
0.0021578
0.069005
0.0022273
0.071225
0.0018073
0.073049
0.0012402
0.073762
0.0013495
0.074772
0.00077405
0.07607
-8.6119e-05
0.076191
-7.1922e-05
0.075682
-5.4241e-05
0.075648
-3.7701e-05
0.075151
-2.4577e-05
0.074934
-1.6708e-05
0.075589
-1.4331e-05
0.075577
-1.1035e-05
0.074657
-5.7582e-06
0.074518
-3.5643e-06
0.00041454
-0.00050815
0.074612
1.1664e-05
0.074248
2.0188e-05
0.071651
1.8686e-05
0.063678
-5.6463e-06
0.040271
-2.7961e-05
0.043123
-0.0005675
0.061556
-0.0004658
0.071781
-0.00055097
0.074502
0.074043
-1.1398e-05
-0.0011727
0.025863
0.014355
0.032546
0.019959
0.031471
0.022763
0.028662
0.018567
0.02611
0.02329
0.030265
0.022061
0.029231
0.022759
0.031962
0.0088853
0.035935
-0.0022437
0.043091
-0.0032951
0.045285
0.050793
-0.0010968
-0.068062
-0.00047509
-0.067979
-0.00033313
-0.067455
-3.9013e-05
-0.06714
2.6355e-05
-0.066775
-8.1225e-05
-0.066817
0.00021284
0.00045187
-0.066689
-0.017858
0.053128
0.015524
-0.0087956
-0.015557
0.0067973
-0.0080185
0.0020269
-0.013227
-0.010114
-0.028732
-0.042556
0.046008
-0.018582
0.021612
-0.034401
-0.026226
-0.00069302
-0.0060186
-0.042342
-0.018385
-0.023575
-0.036663
-0.027695
-0.028556
-0.0367
-0.033336
-0.025094
-0.016033
0.040543
-0.019124
0.039026
-0.020051
0.030157
-0.018645
0.02886
-0.017732
0.025197
-0.013367
0.024296
-0.0082711
0.026376
-0.0036738
0.027949
0.030415
0.032889
0.0026102
-0.026896
-0.026188
-0.0067928
-0.019895
-0.011698
-0.032528
-0.024029
0.039088
-0.023639
-0.045983
0.0034977
0.032493
-0.026741
-0.027295
0.036752
-0.021366
0.036252
-0.026242
0.029741
-0.02095
-0.026101
0.0052865
0.027739
0.02633
-0.01842
-0.021622
0.0091715
0.024064
0.012162
0.023385
-0.00057881
-0.01573
0.022507
0.020729
-0.016597
0.017482
0.0048503
0.018635
0.011282
0.016954
0.015414
-0.020829
0.0090666
0.0031998
0.0082796
0.013259
0.0068942
0.0078441
0.067358
-0.06668
0.067413
0.067509
0.067673
0.067003
0.065897
0.06514
0.064411
0.064201
0.065726
0.066398
0.068555
0.070783
0.07259
0.07383
0.07518
0.075954
0.075868
0.075796
0.075742
0.075704
0.075679
0.075663
0.075648
0.075637
0.075631
0.075628
0.07512
0.00022374
1.3605e-05
6.668e-06
1.8599e-05
1.1946e-05
-1.3239e-05
-2.5252e-05
-4.1042e-05
-2.6268e-05
-2.2381e-05
-0.00073557
-0.075416
-0.075428
-0.075442
-0.075461
-0.075486
-0.07552
-0.075565
-0.075626
-0.075708
-0.075818
-0.075521
-0.074322
-0.073125
-0.071627
-0.069875
-0.068116
-0.066727
-0.072658
-0.057134
-0.058231
-0.064264
-0.066457
-0.066932
-0.067266
-0.067305
-0.067278
-0.067359
-0.067147
-0.066695
-2.8077e-05
-5.0354e-05
-6.2022e-05
-6.0729e-05
-4.7516e-05
-2.6597e-05
-4.0438e-06
1.3945e-05
2.3284e-05
2.2614e-05
1.3581e-05
0.015757
-0.0079127
0.024823
0.037914
0.028092
0.03159
0.0075602
-0.0041381
-0.0021112
0.0042429
0.0019743
-0.021337
-0.020773
-0.023592
0.0010185
)
;

boundaryField
{
    bottom
    {
        type             calculated;
        value            uniform 0;
    }
    inlet
    {
        type             calculated;
        value            nonuniform List<scalar>
12
(
-0.066667
-0.066667
-0.066667
-0.066667
-0.066667
-0.066667
-0.066667
-0.066667
-0.066667
-0.066667
-0.066667
-0.066667
)
;
    }
    object
    {
        type             calculated;
        value            uniform 0;
    }
    outlet
    {
        type             calculated;
        value            nonuniform List<scalar>
12
(
0.074896
0.074681
0.074756
0.074498
0.071766
0.061572
0.043136
0.040297
0.063685
0.071639
0.074255
0.074822
)
;
    }
    side1
    {
        type             calculated;
        value            uniform 0;
    }
    side2
    {
        type             calculated;
        value            uniform 0;
    }
    top
    {
        type             calculated;
        value            uniform 0;
    }
}

// ************************************************************************* //
