/*--------------------------------*- C++ -*----------------------------------*\\
| =========                 |                                                 |
| \\      /  F ield         | OpenFOAM: The Open Source CFD Toolbox           |
|  \\    /   O peration     | Version:  v1706                                 |
|   \\  /    A nd           | Web:      www.OpenFOAM.com                      |
|    \\/     M anipulation  |                                                 |
\\*---------------------------------------------------------------------------*/
FoamFile
{
    version     2.0;
    format      ascii;
    class       volScalarField;
    location    "0.45";
    object      p;
}
// * * * * * * * * * * * * * * * * * * * * * * * * * * * * * * * * * * * * * //

dimensions      [0 2 -2 0 0 0 0]


internalField   nonuniform List<scalar>
479
(
-14.7583
-23.0101
-20.1312
-11.2661
14.6758
15.341
1.7261
0.55722
10.2049
11.2546
-7.0457
-6.4042
19.1322
16.9398
15.3048
-4.0801
-4.004
-3.3874
49.9047
28.2525
34.0556
-12.5937
-10.6264
-2.4429
-9.2628
-20.075
8.4398
8.2753
9.9806
-8.8779
-15.1105
-10.6011
-11.1756
-8.643
-6.5658
-9.7248
-5.7621
-10.5282
-10.7583
-11.2595
-7.0622
-7.1303
-9.7397
14.3946
15.6118
16.9462
-7.9651
14.375
10.0555
14.4536
6.05
11.8962
0.26916
-7.2602
-23.6435
-16.0565
6.0777
-1.6346
17.3802
17.2507
-13.9926
-35.5211
-30.1706
-10.19
-23.6886
-2.9919
0.48945
-2.8418
-5.0937
0.9162
1.1835
0.47451
0.6085
0.32104
0.38687
0.21411
0.33026
0.12285
0.21295
0.065373
0.13535
0.010414
0.078084
0.023874
0.068006
0.0065941
0.023165
15.1235
14.5243
14.4096
14.0051
13.9247
14.1687
13.821
-4.009
-2.3247
-0.60638
-0.15426
-0.15296
-0.12347
-0.077181
-0.028573
-0.036514
0.0016096
-0.023984
-6.3828
0.011784
0.0054076
0.013513
13.9517
13.6157
13.4057
13.6143
13.6779
13.5855
-6.267
-0.72476
0.35149
0.091199
-0.042114
0.049469
0.053996
0.079345
0.071782
0.042939
-0.02454
0.015346
-4.517
-3.3672
-2.0519
-1.1687
-0.7637
-0.53321
-0.37125
-0.23815
-0.16818
-0.11688
-0.10913
-0.050209
14.4834
13.235
12.5372
13.2286
13.1765
13.1263
13.0925
13.0728
13.2777
13.4212
13.4739
13.4322
13.3246
13.3913
13.4768
13.5647
13.5907
13.3231
12.0318
8.7358
2.805
-2.4701
-5.6004
-5.1325
-2.4223
-0.90769
-0.54944
-0.45701
-0.30095
-0.18725
-0.087774
-0.054843
-0.072868
-0.087283
-0.032808
-0.013962
0.046567
0.032369
0.016374
0.023681
-0.04805
16.5548
16.2019
15.4471
14.7549
14.0311
11.6889
9.6546
11.9588
12.3586
12.6033
12.7583
12.8557
12.9168
13.0626
13.2024
13.3047
13.3501
13.336
13.2782
13.2017
13.1936
13.1691
13.106
12.9568
12.6214
11.8988
10.3988
7.677
3.6638
-0.28739
-2.7483
-3.0857
-2.0331
-1.0146
-0.55373
-0.38968
-0.2606
-0.1479
-0.060143
-0.023931
-0.022061
-0.016202
0.010288
0.021133
0.019156
-0.01631
0.041052
0.051037
0.022024
0.0076256
-0.044089
-0.027853
-0.047831
-0.064797
-0.11312
-0.16103
-0.2263
-0.32975
-0.48494
-0.68573
-0.97874
-1.4629
-2.2529
-3.2377
-10.5725
-1.122
-2.4982
-3.021
-2.7466
-2.1484
-1.5707
-1.1391
-0.83916
-0.62099
-0.45337
-0.32906
-0.2401
-0.17413
-0.12368
-0.087866
-0.060672
12.9517
13.0582
13.1617
13.2407
13.2816
13.2818
13.2507
13.2043
13.161
13.1333
13.0801
12.9824
12.8071
12.4964
11.9551
11.0256
9.4992
7.1999
4.1767
1.1196
-1.0136
-1.8235
-1.6231
-1.0971
-0.72022
-0.52951
-0.40323
-0.29232
-0.20471
-0.14696
-0.11343
-0.090838
-0.066815
-0.04588
-0.036475
-0.029858
0.012771
-0.030403
0.012396
0.039235
0.019197
0.029619
-0.007039
-0.0048906
-0.037543
18.343
18.0273
17.5371
16.5487
15.1704
12.2498
9.5109
8.0724
7.4468
6.3568
6.2581
5.7935
11.0667
11.7569
12.2038
12.4951
12.682
12.7987
12.8651
2.8931
-14.1699
-30.1716
-20.8799
-13.9308
-12.3031
3.681
0.14657
4.3144
-1.9704
-18.04
-9.1805
-4.7985
-1.6024
1.149
4.2078
5.5102
8.4979
12.4602
16.4151
18.9368
20.3907
21.0821
21.0859
20.3922
22.1132
22.6907
22.0221
-28.8233
-13.5404
1.6365
-9.5831
-23.6969
-1.4723
-5.6966
2.6806
-1.3948
-7.1501
5.8528
0.61781
23.8436
11.4606
8.2215
25.264
24.4807
27.3896
17.7711
22.1745
18.858
30.7716
30.4256
26.8389
17.1351
39.4474
39.1842
33.2427
13.1356
13.094
13.015
12.8768
12.6416
12.2489
11.6095
10.604
9.0965
7.0124
4.4035
1.7812
-0.20943
-1.2047
-1.3321
-1.0389
-0.72503
-0.52134
-0.38745
-0.27858
-0.18939
-0.12521
-0.084648
-0.059118
-0.038128
-0.020411
-0.010174
-0.0052127
-0.0020395
-0.02194
0.010408
-0.024311
0.0034843
0.02136
0.0089878
0.024473
-0.013533
-0.0014583
-0.02073
-0.014755
-0.032919
-0.056071
-0.085762
-0.12609
-0.18003
-0.25271
-0.35211
-0.48698
-0.66434
-0.89475
-1.199
-1.5942
-2.0407
-2.3832
-2.3372
-1.5763
0.10127
2.5609
5.2695
7.6219
9.3399
10.5668
11.4136
11.9797
12.3493
12.5862
12.7335
12.817
12.8504
12.8917
12.9657
13.0567
13.1459
13.2156
13.2545
13.2603
13.2395
13.2051
13.1717
13.1517
49.6961
16.2224
-32.2104
-63.4323
-73.2694
-60.6685
-45.6016
-36.957
-34.9899
-39.0557
-46.9435
-51.3865
-49.5276
-11.8164
56.4625
56.7853
1.9167
-16.6779
)
;

boundaryField
{
    bottom
    {
        type             symmetry;
    }
    inlet
    {
        type             zeroGradient;
    }
    object
    {
        type             zeroGradient;
    }
    outlet
    {
        type             fixedValue;
        value            uniform 0;
    }
    side1
    {
        type             empty;
    }
    side2
    {
        type             empty;
    }
    top
    {
        type             symmetry;
    }
}

// ************************************************************************* //
