/*--------------------------------*- C++ -*----------------------------------*\\
| =========                 |                                                 |
| \\      /  F ield         | OpenFOAM: The Open Source CFD Toolbox           |
|  \\    /   O peration     | Version:  v1706                                 |
|   \\  /    A nd           | Web:      www.OpenFOAM.com                      |
|    \\/     M anipulation  |                                                 |
\\*---------------------------------------------------------------------------*/
FoamFile
{
    version     2.0;
    format      ascii;
    class       volVectorField;
    location    "0.45";
    object      U;
}
// * * * * * * * * * * * * * * * * * * * * * * * * * * * * * * * * * * * * * //

dimensions      [0 1 -1 0 0 0 0]


internalField   nonuniform List<vector>
479
(
(5.4175 -1.7967 4.8407e-07)
(7.0084 -1.4434 4.8803e-07)
(10.5668 -0.078755 4.2622e-07)
(11.9027 -0.23248 5.1598e-07)
(9.8306 0.20675 3.7392e-07)
(9.7252 0.092618 2.3413e-07)
(5.5207 -0.12482 1.0264e-06)
(5.4182 -0.28242 1.0577e-06)
(10.3064 -0.44701 7.5141e-06)
(10.2184 -0.35307 8.46e-06)
(11.7893 -0.2711 2.3416e-05)
(11.7139 -0.038272 2.2112e-05)
(9.3478 0.38356 3.8987e-07)
(9.5726 0.40456 5.092e-07)
(9.8006 0.4125 7.9461e-07)
(11.6031 -0.017617 6.6158e-05)
(11.5655 0.049609 6.566e-05)
(11.5806 -0.2097 7.7656e-05)
(6.3043 3.2195 2.4829e-07)
(8.6187 5.6653 2.5905e-07)
(6.7533 1.8976 2.6129e-07)
(12.0635 -0.98726 2.0132e-06)
(11.8883 -0.86572 4.8319e-06)
(10.9761 -3.0076 2.4598e-07)
(11.6733 -2.4707 4.4423e-07)
(12.2572 -1.2376 4.026e-07)
(10.5138 -0.42571 7.4286e-05)
(10.5364 -0.24292 0.00021581)
(10.3626 -0.24077 0.00019037)
(5.0412 1.8399 2.4752e-06)
(1.9674 1.8393 1.8417e-06)
(11.8075 -0.05035 7.0548e-06)
(11.8142 0.035415 1.0553e-05)
(11.8496 -0.56848 1.3233e-05)
(3.0876 -1.0916 7.8822e-07)
(11.7979 -0.016303 6.8521e-07)
(11.6521 0.63064 8.3618e-07)
(11.7904 1.0225 6.022e-07)
(11.1341 0.56101 6.0977e-06)
(8.7826 1.2206 3.7017e-06)
(7.823 1.2761 3.538e-06)
(10.8122 0.56686 7.9514e-06)
(11.6589 0.20713 1.0516e-05)
(9.552 2.091 4.9749e-07)
(9.6117 2.4695 4.8265e-07)
(9.2634 1.9059 4.7641e-07)
(11.5056 -0.32818 6.7016e-07)
(9.85 1.4713 5.6026e-07)
(10.0742 1.8915 5.3222e-07)
(9.9407 0.77501 1.2535e-06)
(10.7517 1.3437 9.9765e-07)
(10.3326 1.0257 1.24e-06)
(11.3152 1.065 9.9082e-07)
(11.6288 1.4882 6.7204e-07)
(12.2593 -0.72719 4.373e-07)
(12.2819 1.3514 4.3869e-07)
(10.4292 2.425 5.0308e-07)
(11.1531 1.9898 6.5382e-07)
(9.5644 0.81388 6.2818e-07)
(9.5524 1.1794 5.6323e-07)
(10.5647 -0.66301 4.9232e-07)
(8.3567 -0.6922 4.7031e-07)
(-1.7937 -0.3075 8.9741e-07)
(9.6199 -1.0749 4.886e-07)
(-2.2078 -0.63143 1.1291e-06)
(3.3923 0.49264 1.7954e-06)
(5.9811 0.35408 2.5564e-06)
(6.5794 0.97139 3.1953e-06)
(7.6933 -0.88441 5.4902e-07)
(6.1817 0.15493 2.5595e-06)
(5.6908 -0.038082 1.1985e-06)
(6.297 0.10267 2.611e-06)
(5.7777 -0.0013725 1.2183e-06)
(6.3472 0.063954 2.6123e-06)
(5.8151 0.028788 1.231e-06)
(6.3788 0.029736 2.5944e-06)
(5.8359 0.042636 1.2247e-06)
(6.405 0.0074677 2.5743e-06)
(5.8579 0.04805 1.2174e-06)
(6.4264 -0.0050674 2.55e-06)
(5.8947 0.045986 1.1936e-06)
(6.4288 -0.013871 2.5092e-06)
(5.9258 0.039995 1.1705e-06)
(6.4473 -0.018535 2.4948e-06)
(5.9641 0.037466 1.147e-06)
(6.4508 -0.022051 2.4596e-06)
(5.9689 0.04007 1.1288e-06)
(9.7507 -0.083379 2.2047e-07)
(9.8349 0.029851 2.2408e-07)
(9.8418 -0.067577 2.2161e-07)
(9.9 0.0063339 2.2436e-07)
(9.9041 -0.053729 2.2336e-07)
(9.8856 0.10907 2.5154e-07)
(9.9274 0.05635 2.2512e-07)
(10.1275 0.57422 7.3719e-06)
(9.3451 0.4093 6.5589e-06)
(9.2277 0.28081 6.5015e-06)
(9.2039 0.20403 6.4409e-06)
(9.2029 0.14907 6.3771e-06)
(9.199 0.10942 6.3114e-06)
(9.194 0.082585 6.2453e-06)
(9.1988 0.065675 6.2159e-06)
(9.1934 0.055506 6.1698e-06)
(9.202 0.047586 6.1541e-06)
(9.2014 0.041274 6.0895e-06)
(11.5607 0.14903 1.6906e-05)
(5.9888 0.03849 1.1151e-06)
(6.4568 -0.02178 2.4318e-06)
(9.2159 0.037789 6.1193e-06)
(9.8901 -0.15377 2.16e-07)
(9.9348 -0.10493 2.1755e-07)
(9.9631 -0.070108 2.1931e-07)
(9.9445 -0.03927 2.2536e-07)
(9.9416 -0.0032797 2.264e-07)
(9.9559 0.02817 2.2228e-07)
(10.193 -0.5093 6.3307e-07)
(9.8541 -0.35572 6.2747e-07)
(9.6796 -0.25208 6.41e-07)
(9.6048 -0.18978 6.4937e-07)
(9.5363 -0.1443 6.5418e-07)
(9.5126 -0.111 6.5062e-07)
(9.4941 -0.089405 6.4673e-07)
(9.5047 -0.076615 6.5231e-07)
(9.5202 -0.068512 6.6182e-07)
(9.5256 -0.06115 6.5569e-07)
(9.5243 -0.0553 6.4953e-07)
(9.5327 -0.052113 6.5864e-07)
(11.3845 0.21514 1.6727e-05)
(11.1009 0.21683 1.5692e-05)
(10.9372 0.16572 1.5232e-05)
(10.8682 0.11502 1.5052e-05)
(10.8293 0.079184 1.4872e-05)
(10.8074 0.053709 1.4721e-05)
(10.7885 0.035032 1.4563e-05)
(10.7805 0.021036 1.4574e-05)
(10.7761 0.012277 1.4572e-05)
(10.7733 0.0047296 1.4441e-05)
(10.7649 0.0007296 1.4346e-05)
(10.7674 -0.0026475 1.4735e-05)
(9.8116 -0.22334 2.1478e-07)
(9.9754 -0.39851 4.4522e-07)
(10.0314 -0.50846 4.4336e-07)
(9.9694 -0.29306 2.5489e-07)
(9.9809 -0.19671 2.0719e-07)
(9.989 -0.13061 2.0845e-07)
(9.9942 -0.0852 2.0995e-07)
(9.9973 -0.054602 2.1163e-07)
(9.9803 -0.04601 2.2119e-07)
(9.9698 -0.027886 2.2743e-07)
(9.9679 -0.006172 2.2869e-07)
(9.9752 0.013356 2.2429e-07)
(9.9881 0.025141 2.1692e-07)
(9.9804 0.046013 2.2669e-07)
(9.9715 0.081996 3.3606e-07)
(9.9655 0.14313 7.4951e-07)
(9.9734 0.24443 1.6055e-06)
(10.0261 0.41615 3.2155e-06)
(10.2039 0.65266 4.14e-06)
(10.6093 0.96315 3.7921e-06)
(11.1241 0.72805 3.623e-06)
(11.518 0.43947 2.6579e-06)
(11.5872 0.11735 2.3924e-06)
(11.2542 -0.11123 2.1403e-06)
(11.0032 -0.087066 2.0468e-06)
(10.8862 -0.038812 1.9918e-06)
(10.828 -0.016599 1.9347e-06)
(10.7897 -0.0042024 1.8914e-06)
(10.7643 0.0086408 1.8624e-06)
(10.7467 0.017345 1.8387e-06)
(10.7447 0.023223 1.9666e-06)
(10.7485 0.027015 2.13e-06)
(10.75 0.030012 2.1113e-06)
(10.7426 0.029292 2.0865e-06)
(10.7432 0.028961 2.2357e-06)
(10.7445 0.029836 2.331e-06)
(9.54 -0.049122 6.6383e-07)
(6.0158 0.035295 1.0937e-06)
(6.4616 -0.021878 2.3985e-06)
(9.2191 0.034213 6.0709e-06)
(10.7671 -0.0059894 1.4601e-05)
(9.5913 0.11094 2.3191e-07)
(9.6353 -0.1122 2.192e-07)
(9.7144 -0.27326 2.1435e-07)
(9.767 -0.42899 2.8734e-07)
(9.8507 -0.60271 3.167e-07)
(10.0554 -0.64331 3.9526e-07)
(10.297 -0.61116 4.4056e-06)
(10.1302 -0.26057 3.0169e-06)
(10.0778 -0.1818 7.1477e-07)
(10.0473 -0.12204 1.995e-07)
(10.0281 -0.079418 2.0053e-07)
(10.0158 -0.050702 2.0177e-07)
(10.008 -0.031397 2.0317e-07)
(9.9989 -0.033973 2.1344e-07)
(9.9906 -0.029266 2.2319e-07)
(9.9852 -0.018896 2.2958e-07)
(9.9842 -0.0059565 2.3095e-07)
(9.9876 0.0058259 2.2655e-07)
(9.9938 0.013313 2.1895e-07)
(10.0008 0.01508 2.1106e-07)
(10.0024 0.027265 2.0949e-07)
(10.0065 0.047556 9.9439e-07)
(10.0168 0.080458 4.0476e-06)
(10.0393 0.13219 8.6707e-06)
(10.0879 0.21215 1.5381e-05)
(10.1847 0.32803 2.1961e-05)
(10.3732 0.47148 2.4136e-05)
(10.6787 0.59215 2.2713e-05)
(11.0573 0.53491 2.1084e-05)
(11.3614 0.3596 1.828e-05)
(11.4776 0.1348 1.6275e-05)
(11.4183 -0.029529 1.5029e-05)
(11.3086 -0.071337 1.4291e-05)
(11.229 -0.064666 1.369e-05)
(11.1928 -0.056833 1.3317e-05)
(11.1721 -0.052826 1.2987e-05)
(11.1584 -0.047985 1.2797e-05)
(11.1478 -0.042616 1.5198e-05)
(11.1423 -0.037395 1.5407e-05)
(11.1412 -0.033012 1.7893e-05)
(11.1399 -0.030865 1.8917e-05)
(11.1367 -0.030447 1.8685e-05)
(11.1351 -0.028915 1.866e-05)
(11.1358 -0.026987 2.3982e-05)
(11.1363 -0.026019 2.4651e-05)
(10.7479 0.030441 2.462e-06)
(9.5491 -0.045163 6.6814e-07)
(6.0337 0.033282 1.0747e-06)
(6.4635 -0.02521 2.3652e-06)
(9.2187 0.030629 6.0067e-06)
(10.7646 -0.0075378 1.4594e-05)
(11.176 0.016078 5.8633e-05)
(11.1779 0.016848 5.8367e-05)
(11.1792 0.018862 5.4586e-05)
(11.1821 0.022166 5.4835e-05)
(11.1864 0.025108 5.5013e-05)
(11.1926 0.030718 5.5234e-05)
(11.2001 0.037924 5.5241e-05)
(11.2116 0.047535 5.511e-05)
(11.2298 0.058471 5.5809e-05)
(11.255 0.071476 5.6618e-05)
(11.2953 0.086411 5.7681e-05)
(11.3632 0.099474 5.9354e-05)
(11.4597 0.094198 6.1732e-05)
(11.9236 1.5002 4.2556e-07)
(11.374 -0.18525 0.00019512)
(11.4612 -0.086561 0.0002132)
(11.4735 -0.01119 0.00023011)
(11.4346 0.032977 0.00024679)
(11.3815 0.048487 0.0002607)
(11.3356 0.046169 0.00027491)
(11.3026 0.038037 0.00029056)
(11.2791 0.02951 0.00030731)
(11.2616 0.021787 0.00032488)
(11.2486 0.014849 0.00034371)
(11.2391 0.0092937 0.00036234)
(11.2321 0.0052506 0.00038078)
(11.2269 0.0023065 0.00039904)
(11.2231 -0.00039465 0.00041713)
(11.2202 -0.0020518 0.00043501)
(11.2179 -0.0032883 0.00045287)
(10.0032 -0.018068 2.0471e-07)
(9.9996 -0.019701 2.1541e-07)
(9.9964 -0.017223 2.2537e-07)
(9.9943 -0.011532 2.3185e-07)
(9.9938 -0.0043326 2.3324e-07)
(9.9951 0.0022726 2.2878e-07)
(9.9975 0.0066307 2.2102e-07)
(10.0002 0.0078905 2.1274e-07)
(10.0025 0.0061685 4.3276e-05)
(10.0065 0.011633 6.3721e-05)
(10.014 0.020567 8.4444e-05)
(10.0275 0.03502 0.00010512)
(10.051 0.05738 0.00012588)
(10.0918 0.090883 0.00014725)
(10.1608 0.13962 0.00016952)
(10.275 0.20395 0.00019311)
(10.4535 0.27342 0.00021819)
(10.7063 0.33229 0.00022948)
(10.9857 0.30267 0.00025235)
(11.2277 0.21481 0.0002594)
(11.3621 0.097843 0.00026445)
(11.3865 0.0084216 0.00027229)
(11.3509 -0.026703 0.00028225)
(11.3087 -0.027708 0.00029459)
(11.2814 -0.021285 0.00030709)
(11.2658 -0.01599 0.00032136)
(11.2552 -0.01038 0.00033997)
(11.2463 -0.0045062 0.00035855)
(11.2399 0.0012007 0.00037704)
(11.2358 0.0057116 0.00039533)
(11.2332 0.0085166 0.00041353)
(11.2304 0.010074 0.00042817)
(11.2283 0.012247 0.00044603)
(11.2269 0.01409 0.00046368)
(11.2262 0.015417 0.00048134)
(11.2255 0.016059 0.0005213)
(11.1372 -0.025833 4.887e-05)
(10.7484 0.030394 2.4186e-05)
(9.5515 -0.041478 2.2388e-05)
(6.0382 0.033814 2.2678e-05)
(6.4665 -0.025866 2.3966e-05)
(9.232 0.028891 2.7881e-05)
(10.7657 -0.0089684 3.6358e-05)
(11.175 0.014601 8.274e-05)
(11.2161 -0.0044943 0.0004923)
(9.4008 0.11341 2.3044e-07)
(9.4211 -0.1439 2.1788e-07)
(9.4838 -0.34511 2.1425e-07)
(9.574 -0.5591 2.5775e-07)
(9.7198 -0.79812 2.8537e-07)
(10.014 -0.87209 3.5586e-07)
(10.2926 -0.84966 2.5575e-06)
(10.4854 -0.5749 2.9612e-05)
(10.5278 -0.76721 1.6235e-05)
(10.6761 -0.64324 2.9651e-05)
(10.742 -0.41516 8.5986e-05)
(10.7743 -0.25143 0.00025203)
(10.2302 -0.17384 0.00016756)
(10.1458 -0.12146 0.00014622)
(10.0905 -0.082945 0.00012548)
(10.054 -0.054584 0.00010565)
(10.0303 -0.035037 8.5325e-05)
(10.0151 -0.021776 6.4594e-05)
(10.006 -0.01264 4.3478e-05)
(11.0366 -0.24923 0.00022978)
(6.8145 1.8157 2.5872e-06)
(2.6961 1.2015 1.1359e-06)
(5.1543 1.9531 1.8727e-06)
(8.7717 1.1944 3.0128e-06)
(11.2452 0.5384 5.1519e-06)
(10.9625 -0.4716 6.7759e-05)
(11.2481 -0.29672 0.00015834)
(10.6437 2.9544 3.8375e-07)
(11.4625 -0.40352 6.9783e-05)
(8.2352 1.2465 2.2725e-06)
(10.9874 0.60309 3.7187e-06)
(11.7263 -0.57862 1.9921e-05)
(11.3975 -0.63389 3.2166e-05)
(11.1727 -0.53107 5.0066e-05)
(10.8628 -0.71765 2.4529e-05)
(10.6997 -0.9453 1.1125e-05)
(10.3943 -1.1409 1.6414e-06)
(10.0007 -1.2127 3.2076e-07)
(9.5765 -1.1106 2.6704e-07)
(9.3094 -0.80827 2.4295e-07)
(9.1584 -0.46863 2.1478e-07)
(9.0809 -0.14016 2.2182e-07)
(9.1196 0.24977 2.6773e-07)
(9.1657 0.68523 4.0073e-07)
(8.8651 3.3125 3.4477e-07)
(8.3604 2.2686 3.3466e-07)
(8.9833 1.1846 3.7742e-07)
(6.7758 0.73528 1.1583e-06)
(10.3181 0.75524 1.5263e-06)
(11.0807 -0.82646 1.8209e-05)
(11.6838 0.35368 2.4337e-06)
(12.1009 0.85525 9.534e-07)
(11.3647 -0.9317 1.2671e-05)
(11.6931 -1.0003 8.191e-06)
(10.9466 -1.1446 7.5466e-06)
(11.3086 -1.3752 4.6803e-06)
(11.7012 -1.58 2.9148e-06)
(10.6319 -1.4911 1.085e-06)
(11.0719 -1.9354 7.0136e-07)
(8.7779 0.45603 2.7692e-07)
(10.0779 -1.7007 2.9329e-07)
(10.3818 -2.3629 2.6888e-07)
(8.5811 -0.073213 2.2946e-07)
(8.6185 -0.61637 2.1754e-07)
(8.2316 0.90375 2.7438e-07)
(9.3882 -1.6278 2.5307e-07)
(8.8786 -1.2139 2.3342e-07)
(9.2431 -2.4219 2.4117e-07)
(7.7444 0.093846 2.2815e-07)
(7.8478 -0.87526 2.1836e-07)
(8.27 -1.8529 2.2716e-07)
(8.7618 -3.9644 2.302e-07)
(6.1527 0.46948 2.2688e-07)
(6.1907 -1.5069 2.1862e-07)
(6.7862 -3.1562 2.2236e-07)
(10.0037 0.0023669 4.3934e-05)
(10.0097 0.0043482 6.4971e-05)
(10.0206 0.007604 8.5875e-05)
(10.0392 0.012908 0.00010648)
(10.0701 0.020949 0.00012671)
(10.1202 0.032577 0.00014752)
(10.1998 0.048716 0.00016973)
(10.32 0.068643 0.00019345)
(10.4899 0.088431 0.00021914)
(10.7112 0.10441 0.00024525)
(10.9517 0.098832 0.00027162)
(11.1628 0.075553 0.00029673)
(11.2979 0.042348 0.00031889)
(11.348 0.014572 0.00033893)
(11.3404 0.00072709 0.00035781)
(11.3132 -0.002561 0.0003754)
(11.29 -0.002549 0.000393)
(11.275 -0.0028885 0.00041107)
(11.2642 -0.0035615 0.00042901)
(11.2554 -0.004145 0.00044678)
(11.2486 -0.0047979 0.00046444)
(11.2439 -0.0057345 0.00048198)
(11.2409 -0.006984 0.00049941)
(11.2389 -0.0083643 0.00051668)
(11.2371 -0.009609 0.00053374)
(11.2358 -0.010717 0.00055072)
(11.2351 -0.011867 0.00056754)
(11.2347 -0.012916 0.00060592)
(11.2344 -0.013805 0.00060117)
(11.2232 0.016522 0.00051702)
(11.1382 -0.025982 2.6773e-05)
(10.7458 0.029998 2.2233e-06)
(9.5527 -0.039115 4.3181e-07)
(6.0446 0.034201 7.0236e-07)
(6.4703 -0.025565 1.9821e-06)
(9.2358 0.02764 5.9199e-06)
(10.7649 -0.010192 1.4415e-05)
(11.1747 0.014249 6.0408e-05)
(11.2134 -0.0049908 0.0004884)
(11.2021 0.0064318 0.00059991)
(11.2043 0.0061601 0.00060452)
(11.2061 0.0059064 0.00056596)
(11.2085 0.0056765 0.00054908)
(11.2117 0.0055584 0.00053211)
(11.2159 0.0056411 0.00051505)
(11.2216 0.0058779 0.00049784)
(11.2293 0.0064113 0.00048048)
(11.2397 0.0074046 0.00046297)
(11.2536 0.0088616 0.0004453)
(11.2718 0.010749 0.00042752)
(11.2956 0.012965 0.00041044)
(11.3266 0.014447 0.00039476)
(11.3639 0.013209 0.00037825)
(11.3988 0.005058 0.00036162)
(11.4116 -0.013548 0.00034452)
(11.3755 -0.040503 0.00032573)
(11.2686 -0.068817 0.00030122)
(11.083 -0.11497 0.00027593)
(10.8238 -0.061686 0.00024671)
(10.5972 -0.062821 0.00020459)
(10.4207 -0.062441 0.00018025)
(10.2834 -0.053444 0.0001624)
(10.1834 -0.040753 0.00014421)
(10.1145 -0.029092 0.00012564)
(10.0683 -0.019748 0.00010638)
(10.0382 -0.01284 8.6329e-05)
(10.0191 -0.0080046 6.5686e-05)
(10.0075 -0.0045952 4.4539e-05)
(10.0017 -0.0021012 6.4042e-07)
(10.0013 -0.0058234 2.3506e-07)
(10.0007 -0.0083533 -2.1727e-05)
(9.9999 -0.009118 -2.1732e-05)
(9.9992 -0.0080404 -2.1726e-05)
(9.9987 -0.0055052 -2.1722e-05)
(9.9986 -0.0022764 -2.1721e-05)
(9.9989 0.00073532 -2.166e-05)
(9.9994 0.002765 -2.1606e-05)
(10 0.0034035 -2.1592e-05)
(10.0005 0.0026953 4.0047e-07)
(10.0008 0.0010169 7.0704e-07)
(6.3432 -4.7451 2.1971e-07)
(9.2161 -6.6207 2.23e-07)
(12.387 -5.9826 2.3044e-07)
(13.5906 -4.9192 2.2993e-07)
(13.3205 -2.5456 3.0916e-07)
(10.8015 -1.998 3.0825e-07)
(3.2287 -2.6634 5.4598e-07)
(-2.5081 -1.5927 9.9056e-07)
(-2.7171 -0.50339 8.8682e-07)
(-5.0427 1.4166 8.7291e-07)
(9.6937 2.8678 3.1199e-07)
(12.7084 3.1591 2.6141e-07)
(12.806 5.3097 2.5776e-07)
(11.2153 6.3153 2.5842e-07)
(5.1071 1.0523 2.2578e-07)
(5.1004 -2.0088 2.1855e-07)
(5.9188 0.273 2.4274e-06)
(12.3265 1.0508 4.3817e-07)
)
;

boundaryField
{
    bottom
    {
        type             symmetry;
    }
    inlet
    {
        type             fixedValue;
        value            uniform (10 0 0);
    }
    object
    {
        type             noSlip;
    }
    outlet
    {
        type             zeroGradient;
    }
    side1
    {
        type             empty;
    }
    side2
    {
        type             empty;
    }
    top
    {
        type             symmetry;
    }
}

// ************************************************************************* //
