/*--------------------------------*- C++ -*----------------------------------*\\
| =========                 |                                                 |
| \\      /  F ield         | OpenFOAM: The Open Source CFD Toolbox           |
|  \\    /   O peration     | Version:  v1706                                 |
|   \\  /    A nd           | Web:      www.OpenFOAM.com                      |
|    \\/     M anipulation  |                                                 |
\\*---------------------------------------------------------------------------*/
FoamFile
{
    version     2.0;
    format      ascii;
    class       surfaceScalarField;
    location    "0.3";
    object      mdot_f;
}
// * * * * * * * * * * * * * * * * * * * * * * * * * * * * * * * * * * * * * //

dimensions      [1 0 -1 0 0 0 0]


internalField   nonuniform List<scalar>
560
(
-0.000224
-0.1393
-0.00026477
-0.14177
-0.00074549
-0.14456
-0.0010998
-0.14643
-0.0011999
-0.14753
-0.0011438
-0.14822
-0.00096904
-0.14867
-0.00070392
-0.149
-0.00037196
-0.14924
-0.14945
-0.00061553
-0.13868
-0.00089828
-0.14148
-0.0011541
-0.14429
-0.0013104
-0.14626
-0.0013171
-0.14752
-0.0012018
-0.14832
-0.00099068
-0.14888
-0.0007081
-0.14928
-0.00037028
-0.14957
-0.14982
-0.00087957
-0.13779
-0.0012958
-0.14105
-0.0014913
-0.14409
-0.0015499
-0.14619
-0.0014808
-0.14758
-0.0013111
-0.14849
-0.0010579
-0.14913
-0.00074386
-0.14959
-0.00038577
-0.14994
-0.15021
-0.0011017
-0.13667
-0.0016142
-0.14052
-0.001797
-0.1439
-0.0018097
-0.14617
-0.0016864
-0.1477
-0.0014675
-0.14872
-0.001168
-0.14943
-0.00081122
-0.14995
-0.00041809
-0.15034
-0.15064
-0.0013199
-0.13535
-0.0019314
-0.13992
-0.0021177
-0.14373
-0.002113
-0.1462
-0.0019507
-0.14788
-0.0016788
-0.14901
-0.0013253
-0.14981
-0.00091396
-0.15039
-0.0004683
-0.15081
-0.15113
-0.0015519
-0.1338
-0.0023014
-0.13922
-0.0025201
-0.14354
-0.0025145
-0.14624
-0.002313
-0.14812
-0.0019717
-0.14939
-0.001541
-0.15028
-0.001053
-0.15092
-0.00053738
-0.15137
-0.15169
-0.0018016
-0.13202
-0.0028118
-0.1383
-0.00313
-0.1433
-0.0031154
-0.14633
-0.0028358
-0.14846
-0.0023793
-0.14991
-0.0018276
-0.15089
-0.0012309
-0.15157
-0.00062346
-0.15203
-0.15235
-0.0021234
-0.12994
-0.003733
-0.13682
-0.0042122
-0.14292
-0.0040791
-0.14656
-0.0035875
-0.14905
-0.0029138
-0.15067
-0.0021786
-0.15171
-0.0014386
-0.15238
-0.00071979
-0.15282
-0.15311
-0.003229
-0.12679
-0.0058994
-0.13433
-0.0062188
-0.14274
-0.0055576
-0.14734
-0.0045746
-0.15015
-0.0035327
-0.15182
-0.0025453
-0.1528
-0.0016385
-0.15338
-0.00080838
-0.15373
-0.15396
-0.008994
-0.1179
-0.010725
-0.1328
-0.0093777
-0.14424
-0.007431
-0.14943
-0.005626
-0.15208
-0.0040984
-0.15346
-0.0028341
-0.15416
-0.0017755
-0.15453
-0.00086323
-0.15473
-0.15487
0.020612
-0.13863
0.024442
-0.13683
0.025078
-0.14503
0.023932
-0.14842
0.021339
-0.14961
0.017822
-0.15005
0.013747
-0.15019
0.0093274
-0.1502
0.0046984
-0.15019
-0.15022
0.012482
-0.15123
0.017672
-0.1422
0.019016
-0.14652
0.01833
-0.14786
0.016458
-0.14786
0.013824
-0.14752
0.010703
-0.14716
0.0072762
-0.14686
0.0036652
-0.14666
-0.14659
0.0073739
-0.15871
0.012142
-0.14714
0.013569
-0.14809
0.013201
-0.14762
0.011895
-0.14666
0.010017
-0.14574
0.0077701
-0.145
0.0052873
-0.14446
0.0026604
-0.14412
-0.14396
0.0037955
-0.1626
0.0073731
-0.15086
0.0085094
-0.14934
0.0083607
-0.14757
0.0075498
-0.14595
0.0063595
-0.14464
0.0049319
-0.14365
0.0033534
-0.14295
0.0016822
-0.14251
-0.14231
0.00090139
-0.16359
0.00297
-0.15304
0.0036607
-0.15012
0.0036614
-0.14765
0.003313
-0.14567
0.0027839
-0.14418
0.0021506
-0.14308
0.0014553
-0.14232
0.00072226
-0.14183
-0.1416
-0.0016247
-0.16203
-0.0012203
-0.15351
-0.0010726
-0.15033
-0.00099428
-0.14779
-0.00090726
-0.14581
-0.00078484
-0.14434
-0.00062596
-0.14328
-0.00043798
-0.14254
-0.00023344
-0.14207
-0.14185
-0.004069
-0.158
-0.0052903
-0.15232
-0.0057614
-0.14989
-0.005679
-0.1479
-0.005189
-0.14632
-0.0044169
-0.14514
-0.0034526
-0.14427
-0.002364
-0.14365
-0.0012046
-0.14325
-0.14305
-0.006612
-0.15141
-0.0094993
-0.14943
-0.010682
-0.14871
-0.010609
-0.14797
-0.0096821
-0.14725
-0.0082061
-0.14662
-0.0063867
-0.14609
-0.0043566
-0.14568
-0.0022076
-0.1454
-0.14525
-0.010093
-0.14132
-0.014922
-0.14457
-0.016586
-0.14703
-0.016212
-0.14833
-0.014604
-0.14884
-0.012261
-0.14894
-0.0094802
-0.14886
-0.0064386
-0.14871
-0.0032508
-0.14858
-0.1485
-0.018868
-0.12244
-0.024029
-0.13936
-0.024515
-0.14651
-0.022887
-0.14992
-0.020108
-0.1516
-0.016641
-0.15238
-0.012756
-0.15272
-0.0086192
-0.15283
-0.0043386
-0.15284
-0.15282
0.011254
-0.13366
0.012014
-0.14006
0.010543
-0.14499
0.0086218
-0.14796
0.006763
-0.1497
0.0051027
-0.15069
0.0036438
-0.15123
0.0023411
-0.1515
0.0011458
-0.15162
-0.15166
0.005595
-0.13922
0.0075697
-0.14197
0.0075019
-0.14487
0.0066434
-0.14706
0.0055132
-0.14853
0.0043294
-0.14947
0.0031796
-0.15004
0.0020838
-0.15037
0.001034
-0.15054
-0.15061
0.0031132
-0.14229
0.004804
-0.1436
0.0052452
-0.14527
0.004971
-0.14674
0.0043342
-0.14785
0.0035281
-0.14863
0.0026579
-0.14914
0.0017737
-0.14945
0.00089106
-0.14962
-0.1497
0.0018697
-0.14413
0.0031235
-0.14479
0.0036549
-0.14575
0.0036548
-0.14669
0.0033195
-0.14747
0.0027872
-0.14806
0.0021472
-0.14846
0.0014553
-0.14872
0.00073967
-0.14887
-0.14894
0.0011824
-0.14528
0.0020745
-0.14562
0.0025467
-0.14617
0.0026522
-0.14675
0.0024879
-0.14727
0.0021431
-0.14767
0.0016826
-0.14797
0.0011554
-0.14816
0.00059345
-0.14828
-0.14833
0.0007695
-0.14601
0.0013935
-0.1462
0.0017669
-0.1465
0.0018957
-0.14684
0.0018228
-0.14716
0.0016017
-0.14741
0.0012775
-0.14761
0.00088741
-0.14774
0.00046008
-0.14782
-0.14786
0.00050284
-0.14649
0.00093129
-0.14658
0.0012063
-0.14674
0.001322
-0.14692
0.0012946
-0.14709
0.0011544
-0.14724
0.00093201
-0.14735
0.00065368
-0.14743
0.00034231
-0.14748
-0.1475
0.00031919
-0.14678
0.00060249
-0.14682
0.00079121
-0.14689
0.00087925
-0.14697
0.00087219
-0.14705
0.0007859
-0.14712
0.00063986
-0.14717
0.00045201
-0.14721
0.00023925
-0.14723
-0.14725
0.00018564
-0.14694
0.00035638
-0.14694
0.00047149
-0.14697
0.00052772
-0.14699
0.00052728
-0.14702
0.00047795
-0.14704
0.00039101
-0.14705
0.00027738
-0.14707
0.00014808
-0.14707
-0.14708
8.4977e-05
0.00015884
0.00020981
0.00023422
0.00023328
0.00021073
0.00017191
0.00012114
6.1749e-05
)
;

boundaryField
{
    bump
    {
        type             calculated;
        value            uniform 0;
    }
    outlet
    {
        type             calculated;
        value            nonuniform List<scalar>
10
(
0.14898
0.1488
0.14863
0.1484
0.14808
0.14755
0.14667
0.14491
0.14192
0.13973
)
;
    }
    inlet
    {
        type             calculated;
        value            nonuniform List<scalar>
10
(
-0.147
-0.147
-0.147
-0.147
-0.147
-0.147
-0.147
-0.147
-0.147
-0.147
)
;
    }
    side1
    {
        type             calculated;
        value            uniform 0;
    }
    side2
    {
        type             calculated;
        value            uniform 0;
    }
    symmetry
    {
        type             calculated;
        value            uniform 0;
    }
    top
    {
        type             calculated;
        value            uniform 0;
    }
}

// ************************************************************************* //
