/*--------------------------------*- C++ -*----------------------------------*\\
| =========                 |                                                 |
| \\      /  F ield         | OpenFOAM: The Open Source CFD Toolbox           |
|  \\    /   O peration     | Version:  v1706                                 |
|   \\  /    A nd           | Web:      www.OpenFOAM.com                      |
|    \\/     M anipulation  |                                                 |
\\*---------------------------------------------------------------------------*/
FoamFile
{
    version     2.0;
    format      ascii;
    class       volScalarField;
    location    "0.3";
    object      p;
}
// * * * * * * * * * * * * * * * * * * * * * * * * * * * * * * * * * * * * * //

dimensions      [1 -1 -2 0 0 0 0]


internalField   nonuniform List<scalar>
300
(
8.7411
1.5719
8.3938
9.1142
5.5803
2.171
-0.96005
-3.6049
-5.6247
-6.8796
3.3196
-4.2094
11.162
17.0125
13.3232
7.8266
2.0864
-3.0405
-6.9379
-9.1808
16.6994
3.5111
19.9407
27.0314
21.1257
11.9955
2.6405
-5.5822
-11.6927
-15.0362
54.3869
28.3879
37.6805
40.6271
29.0935
14.0197
-0.3444
-12.2955
-20.9239
-25.5235
125.9775
76.1111
66.3147
57.3504
35.5147
11.8115
-8.913
-25.0691
-36.237
-42.0018
242.6942
151.9989
105.1707
73.7023
36.3043
1.8689
-25.7381
-45.9733
-59.2589
-65.8417
411.2902
255.4573
146.932
80.7809
24.0685
-21.0953
-54.1312
-76.7823
-90.979
-97.7901
617.7421
367.6696
171.6902
62.8865
-11.2216
-62.7827
-96.9952
-118.7217
-131.6082
-137.5262
780.7298
428.4166
142.2864
0.059124
-78.4954
-125.9826
-154.3076
-170.7214
-179.6551
-183.414
637.4055
317.1157
16.3986
-118.7982
-177.2949
-206.5646
-221.2498
-228.204
-231.1781
-232.0643
-240.1465
-65.403
-208.526
-279.134
-293.346
-293.6102
-289.8786
-285.284
-281.4837
-279.2335
-864.5129
-439.978
-424.5542
-422.6743
-397.1298
-372.3696
-352.3386
-337.4289
-327.4916
-322.2697
-1314.3515
-780.0673
-627.6818
-553.7806
-488.9203
-440.6026
-405.6052
-381.337
-365.8798
-358.0151
-1587.6828
-1036.9598
-786.2537
-655.9548
-558.6197
-491.0938
-444.2857
-412.7819
-393.1126
-383.2888
-1672.8771
-1177.6661
-874.7771
-711.8502
-595.6129
-516.9928
-463.642
-428.3067
-406.4915
-395.6975
-1549.2462
-1171.7059
-870.1573
-705.4761
-590.322
-512.83
-460.4955
-425.9303
-404.6329
-394.1264
-1187.3523
-992.3387
-757.1653
-628.8709
-539.0047
-477.3019
-434.7694
-406.1315
-388.2009
-379.2712
-591.8144
-640.2335
-543.0683
-490.6913
-448.6146
-415.6643
-390.4528
-372.089
-359.9055
-353.5888
121.4659
-198.7805
-283.7262
-325.7099
-339.5367
-340.0311
-335.1713
-329.09
-323.9017
-320.7796
594.0221
123.3178
-85.1371
-188.5996
-240.9467
-266.8515
-278.8578
-283.7125
-285.1035
-285.136
290.3499
113.6081
-28.9994
-120.2753
-176.7436
-210.9044
-230.986
-242.2901
-248.0937
-250.4687
146.8553
69.2397
-18.4243
-87.9899
-137.7024
-171.5431
-193.7199
-207.5923
-215.5309
-219.136
65.3055
26.8141
-25.8237
-74.8926
-114.4704
-144.1417
-165.2063
-179.3155
-187.8956
-191.9863
16.4142
-4.565
-36.9936
-70.9055
-100.9909
-125.3851
-143.8659
-156.9097
-165.1873
-169.2775
-14.0698
-26.4386
-47.1698
-70.7181
-93.2018
-112.6129
-128.1286
-139.5577
-147.0557
-150.8631
-33.5537
-41.3606
-55.1781
-71.8358
-88.6713
-103.9461
-116.6918
-126.4295
-133.0006
-136.4049
-46.1652
-51.423
-61.0842
-73.2357
-86.0655
-98.1722
-108.6197
-116.8393
-122.5155
-125.5053
-54.2457
-58.0606
-65.2385
-74.5302
-84.662
-94.5247
-103.2619
-110.2833
-115.2066
-117.8204
-59.0197
-62.0751
-67.8734
-75.5135
-84.0262
-92.4951
-100.1409
-106.3754
-110.779
-113.1062
-61.0228
-63.8321
-69.069
-76.0309
-83.8699
-91.7478
-98.9251
-104.8153
-108.9794
-111.1199
)
;

boundaryField
{
    bump
    {
        type             zeroGradient;
    }
    outlet
    {
        type             fixedValue;
        value            uniform 0;
    }
    inlet
    {
        type             zeroGradient;
    }
    side1
    {
        type             empty;
    }
    side2
    {
        type             empty;
    }
    symmetry
    {
        type             symmetry;
    }
    top
    {
        type             symmetry;
    }
}

// ************************************************************************* //
