/*--------------------------------*- C++ -*----------------------------------*\\
| =========                 |                                                 |
| \\      /  F ield         | OpenFOAM: The Open Source CFD Toolbox           |
|  \\    /   O peration     | Version:  v1706                                 |
|   \\  /    A nd           | Web:      www.OpenFOAM.com                      |
|    \\/     M anipulation  |                                                 |
\\*---------------------------------------------------------------------------*/
FoamFile
{
    version     2.0;
    format      ascii;
    class       volVectorField;
    location    "0.3";
    object      U;
}
// * * * * * * * * * * * * * * * * * * * * * * * * * * * * * * * * * * * * * //

dimensions      [0 1 -1 0 0 0 0]


internalField   nonuniform List<vector>
300
(
(57.0329 -0.47943 0.0017874)
(57.9258 0.43347 0.0013357)
(59.1478 -0.050357 0.00035225)
(59.8653 -0.36935 0.00012869)
(60.225 -0.39363 1.1642e-05)
(60.4397 -0.4103 -4.1714e-05)
(60.5729 -0.37625 -5.1509e-05)
(60.6645 -0.30062 1.0729e-05)
(60.7359 -0.19654 0.00097809)
(60.8066 -0.07309 0.0010407)
(56.6141 -0.60085 0.002254)
(57.7314 0.33531 0.0016568)
(58.8758 -0.15983 0.00061061)
(59.65 -0.45866 0.00031467)
(60.1243 -0.4354 0.00015437)
(60.4248 -0.42657 7.4289e-05)
(60.6281 -0.37939 4.7714e-05)
(60.7761 -0.29764 0.00010095)
(60.8899 -0.1927 0.0010565)
(60.988 -0.071878 0.0011207)
(56.3265 -0.70828 0.0026953)
(57.5915 0.30871 0.0019188)
(58.7703 -0.18074 0.0007822)
(59.5771 -0.53067 0.00039411)
(60.1026 -0.49433 0.00017828)
(60.4483 -0.46568 6.3104e-05)
(60.6899 -0.40542 1.3458e-05)
(60.8689 -0.31342 5.2913e-05)
(61.0052 -0.20062 0.0009921)
(61.1162 -0.074735 0.0010555)
(55.8903 -0.8289 0.0033563)
(57.3674 0.28275 0.0023598)
(58.6487 -0.16225 0.0011003)
(59.5097 -0.59649 0.00059655)
(60.0928 -0.57277 0.00031)
(60.4884 -0.53014 0.00014915)
(60.77 -0.45535 6.8381e-05)
(60.9794 -0.34846 8.7698e-05)
(61.1375 -0.22108 0.0010052)
(61.26 -0.081841 0.0010647)
(55.281 -0.99251 0.0041834)
(57.0433 0.19287 0.002923)
(58.4896 -0.14871 0.0015035)
(59.4344 -0.67926 0.00085721)
(60.0944 -0.68575 0.00048246)
(60.5512 -0.62941 0.00026371)
(60.8785 -0.53416 0.00014248)
(61.1195 -0.40556 0.00013409)
(61.2977 -0.25539 0.0010238)
(61.429 -0.093466 0.0010756)
(54.4294 -1.2422 0.0051934)
(56.5747 -0.045903 0.0036238)
(58.2743 -0.19835 0.0020024)
(59.3492 -0.81547 0.0011836)
(60.1163 -0.85822 0.00070083)
(60.6508 -0.77912 0.00041029)
(61.0311 -0.65078 0.000238)
(61.304 -0.48752 0.00019321)
(61.4988 -0.30362 0.0010484)
(61.6352 -0.10966 0.0010882)
(53.2181 -1.642 0.0063952)
(55.8889 -0.56239 0.0044735)
(57.9933 -0.40414 0.0026051)
(59.276 -1.0598 0.001581)
(60.1896 -1.1237 0.00096826)
(60.8174 -0.99722 0.00059071)
(61.2505 -0.81232 0.00035593)
(61.5492 -0.59581 0.00026535)
(61.7538 -0.36535 0.0010789)
(61.889 -0.12992 0.0011021)
(51.4484 -2.2913 0.0077845)
(54.902 -1.5675 0.0054766)
(57.6834 -0.92425 0.0033148)
(59.2908 -1.4921 0.0020507)
(60.3835 -1.5177 0.0012845)
(61.1011 -1.2925 0.00080401)
(61.5687 -1.0148 0.00049516)
(61.8737 -0.72438 0.00034939)
(62.0722 -0.4358 0.0011143)
(62.1965 -0.15229 0.0011166)
(48.9587 -3.3821 0.0093404)
(53.6836 -3.4565 0.006632)
(57.5321 -2.0208 0.0041297)
(59.5585 -2.2017 0.0025883)
(60.8008 -2.0485 0.0016442)
(61.5556 -1.6459 0.001045)
(62.0103 -1.2343 0.00065146)
(62.2858 -0.85274 0.00044218)
(62.4539 -0.5019 0.0011524)
(62.5547 -0.17258 0.0011308)
(47.5848 -5.2806 0.011029)
(53.1211 -6.9077 0.0079318)
(58.0199 -3.9605 0.0050409)
(60.3179 -3.1829 0.0031829)
(61.5368 -2.6401 0.0020366)
(62.2045 -1.9879 0.0013045)
(62.5683 -1.4207 0.00081778)
(62.7675 -0.94901 0.00053884)
(62.8797 -0.54697 0.0011899)
(62.9458 -0.18576 0.001143)
(54.264 -7.5169 0.012756)
(55.9898 -11.3043 0.0092182)
(60.1906 -6.4393 0.0059119)
(61.9438 -4.1873 0.0037378)
(62.7223 -3.1135 0.0023948)
(63.0939 -2.2161 0.0015387)
(63.2537 -1.52 0.00096708)
(63.3137 -0.98573 0.00062369)
(63.3353 -0.55798 0.0012181)
(63.3501 -0.18765 0.0011514)
(63.3685 -6.4375 0.013873)
(60.5088 -11.6672 0.009907)
(63.0358 -6.4698 0.006172)
(63.8483 -3.9123 0.0038643)
(64.0112 -2.8261 0.0024597)
(63.9918 -1.9602 0.0015744)
(63.9104 -1.3202 0.00099129)
(63.8224 -0.84582 0.00064686)
(63.757 -0.47608 0.0012555)
(63.7298 -0.15753 0.001147)
(69.4307 -3.9481 0.014101)
(64.4756 -9.5592 0.0097456)
(65.44 -5.5705 0.0058601)
(65.413 -3.1105 0.003627)
(65.0822 -2.2007 0.0022898)
(64.7458 -1.4842 0.0014591)
(64.4612 -0.97964 0.00092094)
(64.2454 -0.61818 0.00061359)
(64.1035 -0.34525 0.0012476)
(64.0384 -0.11125 0.0011203)
(73.2779 -0.90644 0.013128)
(67.7025 -5.9097 0.0086167)
(67.307 -3.9265 0.0050389)
(66.5821 -1.8719 0.0031093)
(65.8639 -1.2964 0.0019698)
(65.2853 -0.82629 0.001259)
(64.8456 -0.5204 0.000796)
(64.5319 -0.31598 0.0005458)
(64.3316 -0.17279 0.0012038)
(64.2373 -0.052018 0.0010778)
(75.1361 2.2233 0.011778)
(69.7834 -1.474 0.007117)
(68.4321 -1.7162 0.0040598)
(67.2389 -0.33447 0.0024984)
(66.2715 -0.19516 0.0015806)
(65.5444 -0.044935 0.0010051)
(65.0128 0.018591 0.00063111)
(64.6421 0.035944 0.00044996)
(64.4078 0.027287 0.0011266)
(64.2959 0.015306 0.001022)
(75.033 5.1022 0.010811)
(70.483 3.093 0.0060474)
(68.6834 0.84972 0.0033308)
(67.2976 1.331 0.0020314)
(66.2501 0.99479 0.0012705)
(65.4852 0.78306 0.00079592)
(64.9355 0.58452 0.0004914)
(64.5555 0.40338 0.00036675)
(64.3154 0.23568 0.0010394)
(64.1991 0.084609 0.00096186)
(72.8508 7.4296 0.0095493)
(69.5407 7.1455 0.0052203)
(67.9388 3.4719 0.0027487)
(66.7021 2.9443 0.0016416)
(65.7821 2.1392 0.0010094)
(65.1081 1.5672 0.00062064)
(64.6202 1.1154 0.00037557)
(64.2797 0.74586 0.00029588)
(64.0617 0.4292 0.00094953)
(63.9528 0.14865 0.00090035)
(68.3386 8.8024 0.0066835)
(66.8378 10.0637 0.0037805)
(66.1066 5.6843 0.0019021)
(65.4242 4.2664 0.0011259)
(64.871 3.0637 0.00070297)
(64.4304 2.1996 0.00043609)
(64.0889 1.5439 0.0002632)
(63.8373 1.0228 0.00022293)
(63.6695 0.58584 0.00086335)
(63.5814 0.2002 0.00083864)
(61.3922 8.7479 0.0029985)
(62.5607 11.0442 0.0019232)
(63.3962 6.8981 0.00092633)
(63.651 4.9726 0.00057606)
(63.6555 3.5804 0.00039221)
(63.5504 2.5734 0.0002554)
(63.4125 1.8096 0.00015615)
(63.2828 1.2007 0.00014652)
(63.1839 0.68899 0.0007801)
(63.1262 0.23395 0.00077749)
(53.7437 6.7058 0.00091403)
(58.1574 9.1939 0.00081668)
(60.7007 6.5296 0.00030805)
(61.8897 4.8261 0.00019559)
(62.4258 3.5859 0.00014862)
(62.6412 2.6375 0.0001026)
(62.7012 1.8849 6.4247e-05)
(62.6925 1.2642 7.0623e-05)
(62.6627 0.73021 0.00070216)
(62.6366 0.24654 0.00071853)
(52.5317 2.6113 0.00063106)
(56.9554 4.9292 0.00065962)
(59.4015 4.7945 0.00012682)
(60.7426 4.0086 3.9174e-05)
(61.4694 3.187 2.6088e-05)
(61.8489 2.4452 1.9345e-05)
(62.0348 1.7964 1.3426e-05)
(62.1156 1.2271 9.411e-06)
(62.1436 0.71694 0.00063736)
(62.1486 0.24039 0.00066628)
(55.9179 1.2485 0.00061171)
(57.6597 2.8002 0.0006056)
(59.1649 3.1887 6.353e-05)
(60.1937 2.9659 8.2961e-06)
(60.8516 2.5293 4.4362e-06)
(61.251 2.0371 4.1849e-06)
(61.481 1.5485 4.1144e-06)
(61.605 1.0834 4.0555e-06)
(61.6649 0.64351 0.00058987)
(61.6872 0.21713 0.00061425)
(57.5768 0.67757 0.00055541)
(58.3484 1.6783 0.00055251)
(59.2371 2.1195 3.9502e-05)
(59.9607 2.1411 5.5221e-06)
(60.4819 1.9384 3.8001e-06)
(60.8312 1.6303 3.6802e-06)
(61.0514 1.2782 3.618e-06)
(61.1819 0.91409 3.5614e-06)
(61.2523 0.55124 0.00053931)
(61.2817 0.18713 0.00055696)
(58.5284 0.40011 0.00049446)
(58.9042 1.0528 0.00049307)
(59.4162 1.4247 2.4293e-05)
(59.8921 1.529 3.8917e-06)
(60.2695 1.4516 3.1329e-06)
(60.543 1.2661 3.0609e-06)
(60.7271 1.0198 3.0056e-06)
(60.8429 0.7433 2.9548e-06)
(60.9092 0.45426 0.00048334)
(60.9386 0.15512 0.00049544)
(59.1088 0.25 0.00042965)
(59.3023 0.68278 0.00042899)
(59.5957 0.96715 1.4626e-05)
(59.8952 1.0841 2.7652e-06)
(60.1507 1.0674 2.4292e-06)
(60.3474 0.95842 2.3753e-06)
(60.4869 0.7896 2.3267e-06)
(60.5782 0.58488 2.2833e-06)
(60.6326 0.36147 0.00042245)
(60.6577 0.12406 0.00043025)
(59.4758 0.16124 0.00036174)
(59.5776 0.45094 0.00036143)
(59.7427 0.65821 8.4396e-06)
(59.9228 0.76064 1.8869e-06)
(60.085 0.76961 1.7319e-06)
(60.2153 0.70665 1.686e-06)
(60.3116 0.59272 1.6438e-06)
(60.3766 0.44505 1.6079e-06)
(60.4163 0.2777 0.00035742)
(60.4353 0.095716 0.00036205)
(59.7112 0.10468 0.00029149)
(59.7635 0.29755 0.00029135)
(59.8522 0.44303 4.5157e-06)
(59.9534 0.52278 1.1821e-06)
(60.048 0.53951 1.1016e-06)
(60.1263 0.50366 1.0605e-06)
(60.1857 0.42818 1.0243e-06)
(60.2269 0.32495 9.951e-07)
(60.2526 0.20444 0.00028912)
(60.2653 0.070765 0.00029159)
(59.8605 0.066242 0.00021963)
(59.8847 0.19064 0.00021958)
(59.9277 0.28774 2.1302e-06)
(59.9779 0.34418 6.4748e-07)
(60.026 0.36008 5.9618e-07)
(60.0666 0.34018 5.5913e-07)
(60.0978 0.292 5.2813e-07)
(60.1197 0.22324 5.0449e-07)
(60.1338 0.14134 0.00021847)
(60.1413 0.049108 0.00021959)
(59.949 0.038596 0.00014682)
(59.9568 0.1121 0.0001468)
(59.9732 0.17069 8.1804e-07)
(59.9926 0.20573 2.9255e-07)
(60.0114 0.21694 2.526e-07)
(60.0274 0.20645 2.194e-07)
(60.0396 0.17827 1.9278e-07)
(60.0483 0.1369 1.7318e-07)
(60.0542 0.086958 0.00014631)
(60.0585 0.030254 0.00014669)
(59.9901 0.017592 4.3231e-08)
(59.991 0.050484 3.7211e-08)
(59.9945 0.076354 -7.3254e-05)
(59.9986 0.092147 -7.3368e-05)
(60.0026 0.097226 -7.3389e-05)
(60.006 0.092538 -7.3408e-05)
(60.0086 0.079886 -7.3422e-05)
(60.0104 0.061239 -7.3433e-05)
(60.0118 0.038294 -1.1668e-07)
(60.0134 0.01294 -5.2201e-08)
)
;

boundaryField
{
    bump
    {
        type             noSlip;
    }
    outlet
    {
        type             zeroGradient;
    }
    inlet
    {
        type             fixedValue;
        value            uniform (60 0 0);
    }
    side1
    {
        type             empty;
    }
    side2
    {
        type             empty;
    }
    symmetry
    {
        type             symmetry;
    }
    top
    {
        type             symmetry;
    }
}

// ************************************************************************* //
