/*--------------------------------*- C++ -*----------------------------------*\\
| =========                 |                                                 |
| \\      /  F ield         | OpenFOAM: The Open Source CFD Toolbox           |
|  \\    /   O peration     | Version:  v1706                                 |
|   \\  /    A nd           | Web:      www.OpenFOAM.com                      |
|    \\/     M anipulation  |                                                 |
\\*---------------------------------------------------------------------------*/
FoamFile
{
    version     2.0;
    format      ascii;
    class       surfaceScalarField;
    location    "0.05";
    object      mdot_f;
}
// * * * * * * * * * * * * * * * * * * * * * * * * * * * * * * * * * * * * * //

dimensions      [1 0 -1 0 0 0 0]


internalField   nonuniform List<scalar>
560
(
-5.1014e-05
-0.14598
-8.0772e-05
-0.14609
-0.00010732
-0.14626
-0.00011922
-0.14648
-0.00011702
-0.14673
-0.00010724
-0.14698
-8.7208e-05
-0.1472
-5.9143e-05
-0.14738
-3.06e-05
-0.1475
-0.14756
-0.00015637
-0.14582
-0.00025334
-0.14595
-0.00032824
-0.14615
-0.00036946
-0.14641
-0.00036387
-0.1467
-0.00032612
-0.14698
-0.00026822
-0.14722
-0.00018324
-0.14742
-8.7569e-05
-0.14756
-0.14762
-0.00027913
-0.14553
-0.00046045
-0.14567
-0.00058629
-0.14594
-0.0006584
-0.14628
-0.00064527
-0.14663
-0.0005697
-0.14697
-0.00046829
-0.14727
-0.00031794
-0.14749
-0.00014625
-0.14765
-0.14773
-0.00042477
-0.14506
-0.00073131
-0.14528
-0.00092695
-0.14566
-0.001008
-0.14612
-0.00098752
-0.14658
-0.00086594
-0.14701
-0.00068878
-0.14737
-0.00047411
-0.14763
-0.00022684
-0.14781
-0.14789
-0.00063862
-0.14435
-0.0011108
-0.14471
-0.0013891
-0.14527
-0.0014668
-0.14592
-0.0014171
-0.14655
-0.0012251
-0.14708
-0.00095278
-0.14752
-0.00065208
-0.14785
-0.00030851
-0.14806
-0.14815
-0.00099611
-0.14329
-0.0016719
-0.1439
-0.0020374
-0.1448
-0.0020956
-0.14574
-0.0019471
-0.14659
-0.0016644
-0.14727
-0.0012866
-0.14778
-0.00085809
-0.14814
-0.00039922
-0.14838
-0.1485
-0.0016042
-0.14161
-0.0025723
-0.14274
-0.002985
-0.14425
-0.0029436
-0.14564
-0.0026206
-0.14677
-0.0021802
-0.14762
-0.0016456
-0.1482
-0.001095
-0.14859
-0.00052051
-0.14883
-0.14893
-0.0027299
-0.1388
-0.0040829
-0.14123
-0.0043774
-0.14382
-0.0040674
-0.14583
-0.0034702
-0.14723
-0.0027685
-0.14817
-0.0020285
-0.14878
-0.0013347
-0.14919
-0.00062689
-0.14941
-0.1495
-0.0051585
-0.13354
-0.0066709
-0.13958
-0.0063848
-0.14397
-0.0054703
-0.14663
-0.0044058
-0.14818
-0.0033839
-0.14907
-0.0024344
-0.1496
-0.0015599
-0.1499
-0.00071841
-0.15008
-0.15018
-0.011206
-0.12223
-0.011056
-0.13957
-0.0090422
-0.14586
-0.0070251
-0.14851
-0.0052984
-0.14975
-0.003906
-0.15036
-0.0027374
-0.15066
-0.0017368
-0.15079
-0.0008187
-0.15086
-0.15092
0.022459
-0.14463
0.027326
-0.14428
0.026907
-0.14533
0.024502
-0.14602
0.021172
-0.14631
0.017322
-0.14639
0.01319
-0.14638
0.0088566
-0.14636
0.0044603
-0.14636
-0.14641
0.010556
-0.15513
0.015868
-0.1495
0.017472
-0.14682
0.016937
-0.14537
0.015173
-0.14446
0.012693
-0.14384
0.009802
-0.14339
0.0066585
-0.1431
0.0034035
-0.14295
-0.14295
0.005118
-0.16016
0.0086896
-0.15306
0.010414
-0.1485
0.01067
-0.14556
0.0099203
-0.14362
0.0085151
-0.14233
0.0066827
-0.14148
0.0045932
-0.14094
0.0023677
-0.14063
-0.14054
0.0022535
-0.16234
0.0041965
-0.15492
0.0053728
-0.14959
0.0057454
-0.14589
0.0055038
-0.14334
0.0048224
-0.14159
0.0038534
-0.14043
0.0026949
-0.13969
0.0013994
-0.13927
-0.13911
0.00053746
-0.16289
0.0011456
-0.15553
0.001556
-0.14999
0.0017409
-0.14602
0.0017268
-0.14325
0.0015343
-0.14137
0.0012433
-0.14011
0.00088779
-0.13929
0.00047929
-0.13883
-0.13863
-0.00051904
-0.16231
-0.0011494
-0.1549
-0.0016229
-0.1496
-0.0018142
-0.14587
-0.0017908
-0.14329
-0.0015895
-0.14155
-0.0012651
-0.14038
-0.0008766
-0.13965
-0.00043283
-0.13924
-0.13909
-0.0022551
-0.16009
-0.0042314
-0.15297
-0.0054013
-0.14841
-0.0057835
-0.1455
-0.0055668
-0.14359
-0.0048734
-0.1423
-0.0038822
-0.14142
-0.0026858
-0.14088
-0.0013778
-0.14058
-0.1405
-0.0050934
-0.15509
-0.0087252
-0.14947
-0.010484
-0.14676
-0.010743
-0.1453
-0.009969
-0.14438
-0.0085317
-0.14376
-0.0067142
-0.14333
-0.0046012
-0.14304
-0.0023582
-0.14291
-0.1429
-0.010544
-0.14456
-0.015869
-0.14424
-0.017521
-0.1453
-0.016986
-0.14597
-0.015235
-0.14625
-0.012733
-0.14634
-0.0098339
-0.14633
-0.006683
-0.14629
-0.0033846
-0.14629
-0.14635
-0.022475
-0.12218
-0.027341
-0.1395
-0.026935
-0.14579
-0.024527
-0.14846
-0.021242
-0.1497
-0.017368
-0.15028
-0.013198
-0.15058
-0.0088861
-0.15072
-0.0044541
-0.15079
-0.15086
0.011201
-0.13353
0.011035
-0.13956
0.0089887
-0.14393
0.0069861
-0.14659
0.0052588
-0.14815
0.003849
-0.14902
0.0027114
-0.14955
0.0017078
-0.14985
0.00080814
-0.15001
-0.1501
0.0051701
-0.1388
0.0066691
-0.14125
0.006331
-0.14383
0.0054299
-0.14581
0.0043859
-0.14721
0.003321
-0.14814
0.0024033
-0.14872
0.0015507
-0.14911
0.00071714
-0.14933
-0.14942
0.0027205
-0.14166
0.0040848
-0.1428
0.0043542
-0.14431
0.0040302
-0.14566
0.003456
-0.14676
0.0027411
-0.14758
0.0020168
-0.14813
0.0013268
-0.14851
0.00062798
-0.14875
-0.14885
0.0015753
-0.14339
0.0025819
-0.14396
0.0029974
-0.14486
0.0029297
-0.14578
0.0026372
-0.14658
0.0021916
-0.14723
0.0016332
-0.14772
0.0010902
-0.14805
0.00053229
-0.14827
-0.14837
0.0010025
-0.14452
0.0016875
-0.14484
0.0020733
-0.14538
0.0021331
-0.146
0.0019811
-0.14656
0.0017028
-0.14706
0.0013086
-0.14745
0.00087294
-0.14772
0.00042319
-0.1479
-0.14799
0.00068618
-0.1453
0.0011435
-0.1455
0.001457
-0.14583
0.0015682
-0.14623
0.0014859
-0.14663
0.0013089
-0.14697
0.0010412
-0.14727
0.00069645
-0.14749
0.00033465
-0.14763
-0.14769
0.0004858
-0.14587
0.00081641
-0.146
0.0010545
-0.1462
0.0011685
-0.14646
0.0011391
-0.14672
0.0010132
-0.14696
0.00081688
-0.14716
0.00055929
-0.14731
0.00027188
-0.14742
-0.14747
0.00035953
-0.14632
0.00061522
-0.14639
0.00079797
-0.14652
0.00090127
-0.14666
0.00090492
-0.14683
0.00081259
-0.14698
0.00066087
-0.1471
0.00045533
-0.1472
0.00022017
-0.14726
-0.14729
0.00028294
-0.14669
0.00049258
-0.14674
0.00065071
-0.1468
0.00073902
-0.14686
0.00075229
-0.14694
0.0006887
-0.14701
0.00056867
-0.14707
0.00039362
-0.14711
0.000191
-0.14714
-0.14713
0.00023057
0.00043456
0.00058445
0.00066563
0.00068012
0.00062796
0.00052236
0.00037036
0.00019408
)
;

boundaryField
{
    bump
    {
        type             calculated;
        value            uniform 0;
    }
    outlet
    {
        type             calculated;
        value            nonuniform List<scalar>
10
(
0.14756
0.1475
0.14738
0.1472
0.14698
0.14674
0.1465
0.14628
0.14611
0.14601
)
;
    }
    inlet
    {
        type             calculated;
        value            nonuniform List<scalar>
10
(
-0.147
-0.147
-0.147
-0.147
-0.147
-0.147
-0.147
-0.147
-0.147
-0.147
)
;
    }
    side1
    {
        type             calculated;
        value            uniform 0;
    }
    side2
    {
        type             calculated;
        value            uniform 0;
    }
    symmetry
    {
        type             calculated;
        value            uniform 0;
    }
    top
    {
        type             calculated;
        value            uniform 0;
    }
}

// ************************************************************************* //
