/*--------------------------------*- C++ -*----------------------------------*\\
| =========                 |                                                 |
| \\      /  F ield         | OpenFOAM: The Open Source CFD Toolbox           |
|  \\    /   O peration     | Version:  v1706                                 |
|   \\  /    A nd           | Web:      www.OpenFOAM.com                      |
|    \\/     M anipulation  |                                                 |
\\*---------------------------------------------------------------------------*/
FoamFile
{
    version     2.0;
    format      ascii;
    class       volScalarField;
    location    "0.05";
    object      p;
}
// * * * * * * * * * * * * * * * * * * * * * * * * * * * * * * * * * * * * * //

dimensions      [1 -1 -2 0 0 0 0]


internalField   nonuniform List<scalar>
300
(
-6.2103
-5.551
-4.511
-3.1315
-1.599
-0.094808
1.2836
2.4045
3.1665
3.5634
-19.2867
-17.2715
-14.0112
-9.7899
-5.0386
-0.35912
3.835
7.2847
9.6437
10.7745
-34.424
-30.8316
-24.9097
-17.3716
-8.9064
-0.60989
6.7149
12.7359
16.8256
18.7097
-53.3864
-47.9215
-38.5171
-26.5991
-13.6387
-0.94195
10.1917
19.0476
25.1452
28.0656
-78.2782
-70.0639
-55.7801
-37.9206
-19.0609
-0.84073
14.9112
27.1614
35.5472
39.5175
-112.2972
-99.4868
-77.9896
-51.7947
-24.8516
0.18268
21.5823
38.1243
49.1589
54.2956
-160.0187
-139.3901
-106.3161
-67.937
-30.0898
3.6036
31.635
52.793
66.8737
73.5698
-229.2597
-194.1577
-141.6619
-85.381
-33.0851
11.5322
47.1274
73.2085
90.3715
98.4354
-334.6355
-268.3089
-182.5378
-100.447
-30.1145
26.5323
70.0403
101.3395
121.3972
130.6378
-507.7362
-363.6579
-221.5036
-105.2448
-14.919
53.2059
103.4283
138.6247
160.9584
171.489
-872.3248
-471.7052
-237.925
-83.8028
23.5383
99.5807
153.174
189.3355
211.7632
222.1381
-822.0205
-428.6068
-178.5176
-14.782
95.3436
170.6178
221.9927
255.8667
276.2648
285.245
-523.5679
-230.3121
-28.2258
109.083
202.334
265.6124
308.0771
335.684
352.0652
359.2444
-106.6727
65.9882
191.2578
279.1392
339.9524
381.5343
409.4721
427.4163
437.7798
442.3057
347.2334
402.7589
444.4588
474.5901
495.735
510.1793
519.9756
526.2566
529.7661
531.1148
803.2653
747.5283
705.8716
676.5132
656.2149
642.5103
633.3524
627.3244
623.6894
621.8101
1256.702
1084.0613
959.2261
871.6964
811.3519
770.539
743.2196
725.6215
715.1528
710.3796
1672.4196
1378.8288
1177.2238
1040.849
948.5698
885.9243
843.673
816.4631
800.1846
792.8981
1970.2891
1576.6951
1326.6208
1163.5925
1054.169
979.7578
928.9198
895.4714
875.3951
866.1837
2019.4451
1619.0935
1385.5494
1231.8731
1124.9252
1049.9299
997.0144
960.9591
938.9382
928.4887
1654.0464
1510.0363
1368.153
1252.5816
1162.7581
1095.1432
1045.6538
1010.7909
988.8343
978.447
1480.9118
1414.4416
1328.6973
1247.2982
1177.4839
1121.0934
1078.3945
1047.4952
1027.5598
1018.3429
1375.495
1340.5203
1288.0024
1232.0188
1180.2011
1135.7665
1100.5237
1074.5933
1057.5357
1049.4652
1306.8008
1286.5505
1253.3565
1214.8177
1177.1501
1143.2426
1115.0641
1094.0651
1080.0501
1073.2097
1260.3934
1247.5077
1225.8134
1199.1561
1171.7304
1146.2587
1124.3652
1107.5404
1096.3185
1090.8808
1228.5472
1219.728
1205.0272
1186.2941
1166.1317
1147.027
1130.1976
1116.8102
1107.8574
1103.558
1206.6647
1200.4216
1189.9264
1176.3691
1161.345
1146.699
1133.6723
1123.1696
1115.9803
1112.4877
1192.1565
1187.5366
1179.6281
1169.3686
1157.781
1146.1465
1135.6991
1127.2024
1121.3495
1118.5214
1183.391
1179.7554
1173.4234
1165.0574
1155.556
1145.8839
1137.0295
1129.7184
1124.6588
1122.2054
1179.3567
1176.3923
1170.8044
1163.2889
1154.7296
1145.984
1137.909
1131.1917
1126.4293
1123.9339
)
;

boundaryField
{
    bump
    {
        type             zeroGradient;
    }
    outlet
    {
        type             fixedValue;
        value            uniform 0;
    }
    inlet
    {
        type             zeroGradient;
    }
    side1
    {
        type             empty;
    }
    side2
    {
        type             empty;
    }
    symmetry
    {
        type             symmetry;
    }
    top
    {
        type             symmetry;
    }
}

// ************************************************************************* //
