/*--------------------------------*- C++ -*----------------------------------*\\
| =========                 |                                                 |
| \\      /  F ield         | OpenFOAM: The Open Source CFD Toolbox           |
|  \\    /   O peration     | Version:  v1706                                 |
|   \\  /    A nd           | Web:      www.OpenFOAM.com                      |
|    \\/     M anipulation  |                                                 |
\\*---------------------------------------------------------------------------*/
FoamFile
{
    version     2.0;
    format      ascii;
    class       volVectorField;
    location    "0.05";
    object      U;
}
// * * * * * * * * * * * * * * * * * * * * * * * * * * * * * * * * * * * * * //

dimensions      [0 1 -1 0 0 0 0]


internalField   nonuniform List<vector>
300
(
(59.5953 -0.010313 0.0001511)
(59.6377 -0.026821 0.00015089)
(59.706 -0.03842 -1.5443e-05)
(59.7949 -0.046237 -1.5439e-05)
(59.8946 -0.048217 -1.5438e-05)
(59.9928 -0.045772 -1.5438e-05)
(60.0812 -0.039687 -1.5436e-05)
(60.1538 -0.029902 -1.5404e-05)
(60.2033 -0.018238 0.00015559)
(60.2276 -0.0061432 0.00015598)
(59.5522 -0.031771 0.00021596)
(59.5987 -0.083521 0.00021566)
(59.6762 -0.1187 5.1396e-05)
(59.774 -0.14237 5.1402e-05)
(59.884 -0.14964 5.1403e-05)
(59.9918 -0.1408 5.1404e-05)
(60.0862 -0.12128 5.1408e-05)
(60.164 -0.092149 5.1453e-05)
(60.2168 -0.05517 0.00022238)
(60.2404 -0.017726 0.00022294)
(59.4587 -0.05686 0.00016173)
(59.5135 -0.15086 0.00016131)
(59.611 -0.21365 -9.7786e-09)
(59.7332 -0.25402 -8.3591e-10)
(59.8635 -0.26606 6.4324e-10)
(59.9907 -0.24795 1.4141e-09)
(60.1009 -0.21184 6.5786e-09)
(60.1867 -0.16049 7.043e-08)
(60.2461 -0.09465 0.00017091)
(60.2745 -0.029734 0.0001717)
(59.3039 -0.086584 0.00015769)
(59.3773 -0.23586 0.00015708)
(59.51 -0.33845 -1.4228e-08)
(59.6738 -0.39489 -1.3206e-09)
(59.8388 -0.40725 7.9349e-10)
(59.9963 -0.37826 1.8952e-09)
(60.1301 -0.31729 9.2766e-09)
(60.229 -0.23736 1.0012e-07)
(60.2972 -0.14297 0.00017081)
(60.3303 -0.046182 0.00017194)
(59.0649 -0.13023 0.00015191)
(59.1815 -0.35696 0.00015104)
(59.3735 -0.51021 -2.0462e-08)
(59.6001 -0.58284 -1.8876e-09)
(59.822 -0.58856 1.1341e-09)
(60.0179 -0.53924 2.7088e-09)
(60.1808 -0.44447 1.3259e-08)
(60.3028 -0.32755 1.4268e-07)
(60.3812 -0.19596 0.00017067)
(60.4163 -0.062848 0.00017228)
(58.7025 -0.20319 0.00014365)
(58.8996 -0.54442 0.00014241)
(59.1978 -0.75701 -2.9372e-08)
(59.5236 -0.84345 -2.6979e-09)
(59.8249 -0.82503 1.621e-09)
(60.0705 -0.73704 3.8715e-09)
(60.2655 -0.60224 1.895e-08)
(60.4068 -0.43772 2.0351e-07)
(60.4972 -0.25651 0.00017046)
(60.5405 -0.08136 0.00017277)
(58.1434 -0.3273 0.00013184)
(58.4973 -0.85228 0.00013008)
(58.9893 -1.1342 -4.2106e-08)
(59.4669 -1.2099 -3.856e-09)
(59.8693 -1.1356 2.3168e-09)
(60.1801 -0.97975 5.5335e-09)
(60.4055 -0.78078 2.7084e-08)
(60.5569 -0.55934 2.9046e-07)
(60.6542 -0.32962 0.00017016)
(60.7006 -0.10611 0.00017347)
(57.2282 -0.55705 0.00011497)
(57.9536 -1.3903 0.00011245)
(58.7901 -1.7266 -6.0307e-08)
(59.484 -1.7234 -5.5113e-09)
(59.9996 -1.5383 3.3113e-09)
(60.3639 -1.2732 7.9088e-09)
(60.6096 -0.97898 3.871e-08)
(60.7706 -0.68641 4.1473e-07)
(60.8654 -0.40025 0.00016974)
(60.9058 -0.12782 0.00017447)
(55.5796 -1.0527 9.0856e-05)
(57.3095 -2.4141 8.7258e-05)
(58.7327 -2.6644 -8.6322e-08)
(59.6847 -2.4194 -7.8772e-09)
(60.2883 -2.0155 4.7328e-09)
(60.6615 -1.5897 1.1304e-08)
(60.8937 -1.1874 5.5327e-08)
(61.0383 -0.81518 5.9235e-07)
(61.1204 -0.46488 0.00016914)
(61.1596 -0.1465 0.00017589)
(51.3407 -2.2869 0.00018334)
(56.7379 -4.5433 0.00010671)
(59.1163 -4.1018 -1.2713e-05)
(60.2695 -3.2791 -3.6684e-05)
(60.8599 -2.5151 -4.4994e-05)
(61.1681 -1.8785 -4.2857e-05)
(61.3273 -1.3558 -3.3102e-05)
(61.403 -0.91317 -2.1826e-05)
(61.4391 -0.52148 0.00015537)
(61.4556 -0.16697 0.0001738)
(54.7475 -4.6432 6.6658e-05)
(56.788 -7.5758 4.099e-05)
(59.1823 -4.782 -8.2036e-05)
(60.3393 -3.3297 -0.00015958)
(60.9495 -2.4143 -0.0002105)
(61.2929 -1.7658 -0.00021468)
(61.4934 -1.2657 -0.00017329)
(61.617 -0.85579 -0.00012283)
(61.7005 -0.49571 9.3121e-05)
(61.7655 -0.16017 0.00015755)
(62.9721 -5.052 -0.0014199)
(60.9553 -8.4864 -0.00089684)
(61.5006 -5.5931 -0.00071862)
(61.8488 -3.7945 -0.00061873)
(62.0177 -2.6343 -0.00054556)
(62.0817 -1.8459 -0.00045461)
(62.095 -1.2744 -0.00033943)
(62.0985 -0.83133 -0.00023065)
(62.1075 -0.45874 4.3992e-05)
(62.1375 -0.13737 0.0001478)
(68.6421 -4.1419 -0.0050591)
(65.3739 -7.1704 -0.003249)
(64.2727 -4.9995 -0.0022188)
(63.622 -3.4557 -0.0015647)
(63.194 -2.3869 -0.0011208)
(62.8937 -1.6399 -0.0008015)
(62.6819 -1.1044 -0.00056034)
(62.5425 -0.70297 -0.00036696)
(62.467 -0.37856 -2.1939e-05)
(62.4611 -0.10899 0.00012957)
(71.9827 -2.673 -0.0070765)
(68.5419 -4.7093 -0.0046766)
(66.5099 -3.4026 -0.0031351)
(65.1476 -2.3963 -0.0021349)
(64.2252 -1.6651 -0.001472)
(63.5974 -1.14 -0.0010175)
(63.1788 -0.75759 -0.00069326)
(62.9106 -0.46905 -0.00044539)
(62.7583 -0.24471 -5.8874e-05)
(62.7069 -0.068067 0.00011891)
(73.829 -0.93942 -0.0034183)
(70.3694 -1.6692 -0.0022877)
(67.8683 -1.2353 -0.0015301)
(66.107 -0.88282 -0.0010277)
(64.8858 -0.613 -0.00069554)
(64.0525 -0.41732 -0.00047136)
(63.4939 -0.2762 -0.00031526)
(63.135 -0.16713 -0.00019564)
(62.9291 -0.081003 8.3306e-05)
(62.8409 -0.01958 0.00016411)
(73.8218 0.94313 0.0036514)
(70.3656 1.6721 0.0024467)
(67.871 1.2212 0.0016239)
(66.1036 0.85468 0.0010886)
(64.8764 0.58541 0.00073473)
(64.0433 0.39331 0.00049782)
(63.4842 0.26065 0.00033413)
(63.1265 0.16493 0.0002233)
(62.9208 0.092923 0.00031243)
(62.837 0.029324 0.00023488)
(71.9595 2.6728 0.0072379)
(68.5173 4.7022 0.0047792)
(66.4916 3.3901 0.0031867)
(65.1314 2.3831 0.0021699)
(64.211 1.6449 0.001496)
(63.5814 1.117 0.0010329)
(63.1556 0.74151 0.00070324)
(62.8887 0.46506 0.00046772)
(62.7394 0.25121 0.00044294)
(62.6945 0.072803 0.00027296)
(68.6183 4.1468 0.0051369)
(65.3481 7.1684 0.0032982)
(64.2434 4.9787 0.0022243)
(63.5975 3.4271 0.0015684)
(63.1712 2.3623 0.0011238)
(62.8704 1.6268 0.00080307)
(62.6563 1.0948 0.00056158)
(62.5173 0.69499 0.00038268)
(62.4475 0.3791 0.00038912)
(62.4413 0.11129 0.00025025)
(62.9499 5.0545 0.0014839)
(60.9404 8.4887 0.00095263)
(61.4848 5.5834 0.00071635)
(61.8277 3.775 0.00061415)
(61.9878 2.6121 0.00053971)
(62.0561 1.8255 0.00045068)
(62.074 1.26 0.00033822)
(62.0719 0.81988 0.00024207)
(62.0841 0.45775 0.00030545)
(62.1137 0.14164 0.00021762)
(54.7259 4.6402 3.6857e-05)
(56.7695 7.5699 5.7382e-05)
(59.1666 4.7736 8.2786e-05)
(60.3231 3.319 0.00015738)
(60.9312 2.3953 0.0002068)
(61.2693 1.7423 0.00021111)
(61.4692 1.2547 0.00017118)
(61.5897 0.84832 0.00012945)
(61.6728 0.49105 0.00023952)
(61.7422 0.16175 0.00019164)
(51.3273 2.286 5.8116e-05)
(56.7178 4.5381 0.00011596)
(59.0927 4.0866 1.2833e-05)
(60.25 3.2602 3.5199e-05)
(60.8424 2.499 4.2858e-05)
(61.138 1.8588 4.0369e-05)
(61.2993 1.3389 3.1385e-05)
(61.3798 0.90189 2.1765e-05)
(61.4114 0.51356 0.00017907)
(61.4294 0.16504 0.00017006)
(55.5786 1.0552 0.00016554)
(57.3093 2.4162 0.00016554)
(58.7278 2.653 1.2673e-06)
(59.6736 2.4002 1.2671e-06)
(60.2769 2.0032 1.2671e-06)
(60.6448 1.5728 1.2671e-06)
(60.8709 1.1682 1.2671e-06)
(61.0127 0.80689 1.2679e-06)
(61.0905 0.4629 0.00016554)
(61.1273 0.14646 0.00016554)
(57.2364 0.55531 0.00016313)
(57.97 1.3889 0.00016313)
(58.8041 1.7222 1.8113e-06)
(59.4844 1.7111 1.811e-06)
(59.9947 1.5278 1.811e-06)
(60.3516 1.2647 1.811e-06)
(60.5821 0.971 1.811e-06)
(60.7392 0.68234 1.8118e-06)
(60.8332 0.39902 0.00016313)
(60.8709 0.12827 0.00016313)
(58.173 0.32159 0.00015969)
(58.5236 0.84847 0.00015969)
(59.0129 1.1386 2.5887e-06)
(59.4784 1.2096 2.5884e-06)
(59.8655 1.1361 2.5884e-06)
(60.1665 0.98548 2.5884e-06)
(60.3784 0.78059 2.5884e-06)
(60.523 0.55578 2.5891e-06)
(60.6156 0.33119 0.00015969)
(60.6574 0.10873 0.00015969)
(58.7579 0.20469 0.00015477)
(58.9393 0.54904 0.00015477)
(59.2329 0.76748 3.6998e-06)
(59.5472 0.85846 3.6996e-06)
(59.8251 0.83964 3.6996e-06)
(60.0601 0.75182 3.6996e-06)
(60.2402 0.61457 3.6996e-06)
(60.361 0.44519 3.7002e-06)
(60.4414 0.26459 0.00015477)
(60.4817 0.086465 0.00015477)
(59.1472 0.14013 0.00014774)
(59.2526 0.37348 0.00014774)
(59.4304 0.5307 5.2879e-06)
(59.6383 0.61739 5.2877e-06)
(59.8352 0.62329 5.2877e-06)
(60.007 0.57038 5.2877e-06)
(60.1477 0.47963 5.2877e-06)
(60.2481 0.35461 5.2883e-06)
(60.3121 0.2105 0.00014774)
(60.343 0.068392 0.00014774)
(59.4224 0.099233 0.00013769)
(59.489 0.26582 0.00013769)
(59.5968 0.38179 7.5578e-06)
(59.7313 0.45368 7.5576e-06)
(59.8674 0.47096 7.5576e-06)
(59.986 0.43925 7.5576e-06)
(60.0873 0.37349 7.5576e-06)
(60.165 0.28083 7.558e-06)
(60.2142 0.16969 0.00013769)
(60.2375 0.055574 0.00013769)
(59.6306 0.073453 0.00012333)
(59.672 0.19898 0.00012333)
(59.7381 0.28839 1.0802e-05)
(59.8205 0.34679 1.0802e-05)
(59.9081 0.36861 1.0802e-05)
(59.9871 0.35051 1.0802e-05)
(60.0533 0.30071 1.0802e-05)
(60.1039 0.22778 1.0802e-05)
(60.1378 0.13791 0.00012333)
(60.1542 0.045012 0.00012333)
(59.7968 0.05781 0.00010281)
(59.8231 0.15832 0.00010281)
(59.8599 0.23331 1.5439e-05)
(59.9035 0.28362 1.5439e-05)
(59.9516 0.30435 1.5439e-05)
(59.9974 0.29408 1.5439e-05)
(60.0351 0.25661 1.5439e-05)
(60.0633 0.19637 1.5439e-05)
(60.0806 0.11936 0.00010281)
(60.0859 0.039046 0.00010281)
(59.936 0.047054 1.7646e-10)
(59.9466 0.13575 8.8055e-11)
(59.9584 0.20794 -5.1403e-05)
(59.9719 0.2551 -5.1403e-05)
(59.9869 0.27463 -5.1403e-05)
(60.0016 0.26694 -5.1403e-05)
(60.014 0.23474 -5.1403e-05)
(60.0234 0.18216 -5.1403e-05)
(60.0281 0.1152 8.8042e-11)
(60.0274 0.039608 1.7619e-10)
)
;

boundaryField
{
    bump
    {
        type             noSlip;
    }
    outlet
    {
        type             zeroGradient;
    }
    inlet
    {
        type             fixedValue;
        value            uniform (60 0 0);
    }
    side1
    {
        type             empty;
    }
    side2
    {
        type             empty;
    }
    symmetry
    {
        type             symmetry;
    }
    top
    {
        type             symmetry;
    }
}

// ************************************************************************* //
