/*--------------------------------*- C++ -*----------------------------------*\\
| =========                 |                                                 |
| \\      /  F ield         | OpenFOAM: The Open Source CFD Toolbox           |
|  \\    /   O peration     | Version:  v1706                                 |
|   \\  /    A nd           | Web:      www.OpenFOAM.com                      |
|    \\/     M anipulation  |                                                 |
\\*---------------------------------------------------------------------------*/
FoamFile
{
    version     2.0;
    format      ascii;
    class       surfaceScalarField;
    location    "4";
    object      mdot_f;
}
// * * * * * * * * * * * * * * * * * * * * * * * * * * * * * * * * * * * * * //

dimensions      [1 0 -1 0 0 0 0]


internalField   nonuniform List<scalar>
13482
(
-3.273e-07
-1.9254e-07
3.4102e-07
1.7882e-07
-4.6645e-10
-3.2683e-07
4.2851e-07
-4.2898e-07
1.3389e-07
1.0208e-07
5.3575e-09
-3.9376e-09
-1.4199e-09
-2.0241e-06
1.1788e-06
8.5066e-07
1.9854e-06
-1.9894e-06
8.4908e-08
8.2198e-07
1.0786e-06
-1.6159e-06
-2.7145e-06
2.3411e-06
-5.1344e-06
3.6036e-06
7.8345e-07
-1.9854e-06
-2.8419e-06
1.3918e-06
1.4208e-06
2.9311e-08
-2.8509e-06
8.991e-09
-1.5259e-06
-3.6761e-06
2.351e-06
-2.4247e-06
-8.4084e-07
1.7397e-06
-3.5179e-06
-1.5819e-07
-6.5195e-06
5.77e-07
-1.407e-07
6.9177e-07
-2.6205e-08
-1.6e-06
6.9e-07
9.3621e-07
-2.7029e-08
8.2637e-10
-1.0376e-06
-7.0306e-07
-2.3048e-06
-5.2523e-06
-2.3318e-06
-1.9563e-07
5.4778e-08
1.4085e-07
-2.2129e-05
2.2132e-05
-1.9895e-07
7.7308e-06
-4.1688e-06
-2.569e-05
7.7478e-08
3.4906e-06
4.163e-06
1.3232e-07
-5.226e-07
5.2237e-07
2.2133e-10
2.8209e-06
-7.0031e-07
-2.6432e-06
1.858e-06
1.4852e-06
3.5175e-06
9.5531e-07
-2.6148e-06
9.5525e-07
-1.7837e-07
7.0835e-07
1.8424e-06
2.6305e-06
-1.536e-06
1.4418e-06
-3.4152e-06
3.5094e-06
1.0226e-06
-5.0316e-06
2.473e-06
5.3248e-08
-1.9305e-06
3.319e-06
-1.0366e-06
2.552e-06
-1.4622e-06
-1.975e-06
1.9609e-06
3.3904e-06
6.7587e-06
-8.4209e-06
-1.7282e-06
5.4705e-06
-3.4039e-07
-3.6903e-06
5.801e-06
3.3599e-06
7.1585e-07
2.3527e-06
4.4314e-06
3.3043e-06
-8.8902e-06
1.1544e-06
2.2045e-06
2.2417e-06
-1.4762e-08
1.0847e-06
7.0198e-06
-1.4739e-05
6.6345e-06
1.106e-09
3.2881e-06
4.0758e-10
7.0213e-10
1.6023e-09
-1.8091e-06
8.8273e-06
2.0184e-09
-1.2197e-05
7.6201e-07
2.2158e-07
-1.4572e-05
-3.4068e-08
1.4384e-05
1.4902e-07
7.2656e-08
-6.3521e-07
7.7478e-07
9.4542e-09
-3.3055e-06
-1.1901e-05
8.8159e-09
1.0403e-05
-1.1861e-05
1.4497e-06
7.3943e-09
1.4661e-09
3.9077e-09
3.4866e-09
2.0497e-06
8.357e-06
3.0509e-06
1.227e-06
-4.5982e-06
3.2029e-07
1.9708e-06
-2.7042e-06
3.7843e-06
1.1154e-06
1.1069e-06
-9.9533e-07
-1.2435e-08
3.0987e-06
4.4763e-06
5.8473e-06
-9.7631e-06
-5.605e-07
1.2061e-06
-2.0603e-07
3.4762e-06
2.4552e-06
-7.243e-06
4.6749e-06
-1.3608e-07
-6.4752e-06
1.6875e-06
-4.9032e-07
-7.9e-06
1.9151e-06
-1.2706e-05
2.4527e-06
1.5286e-06
-1.5289e-06
3.297e-10
-7.7264e-07
1.9193e-06
3.8185e-07
5.9876e-06
-6.6787e-06
-8.3783e-07
3.9049e-06
1.3101e-06
-2.4309e-07
2.3914e-06
-2.2894e-07
-4.0189e-07
4.1639e-07
-2.576e-07
-4.0156e-07
-2.2122e-06
7.6943e-06
-1.3349e-06
-4.1472e-06
-6.6725e-06
2.9195e-07
-2.529e-06
6.3277e-06
3.8958e-06
-8.2085e-06
-9.9292e-07
-3.3536e-06
-1.3019e-06
-5.968e-07
-2.2965e-06
-9.2655e-06
2.7984e-06
2.2275e-06
-3.3885e-06
-5.6118e-08
3.4446e-06
-1.8986e-05
1.3301e-05
-1.2388e-07
6.7766e-08
-2.153e-06
6.3917e-08
1.9652e-06
5.1606e-07
7.7542e-06
-1.3813e-06
2.6162e-07
-9.0239e-07
6.6197e-06
2.0368e-06
1.2313e-05
-2.5921e-07
-1.3435e-05
1.9528e-06
9.4581e-06
-3.0749e-06
-4.647e-07
9.0727e-07
2.6324e-06
-1.3424e-07
-2.6791e-06
1.3407e-06
4.8143e-06
5.2855e-06
2.6898e-06
-5.2879e-06
-2.6875e-06
7.1797e-06
6.8434e-07
-2.5785e-06
3.0742e-06
-7.085e-07
3.2411e-07
-2.8037e-06
4.3222e-06
1.5558e-06
4.9494e-06
-5.7348e-07
-2.5738e-07
9.9183e-08
-5.4094e-06
9.8378e-06
-4.6858e-06
-1.7697e-06
-3.0624e-06
6.6924e-06
4.0386e-06
-8.9286e-07
6.5909e-06
1.0159e-07
-4.655e-06
2.825e-06
-6.5025e-07
-2.1599e-06
1.5853e-06
2.3134e-06
2.0123e-06
-4.7547e-06
-5.1344e-06
-6.7641e-06
-2.8451e-07
-2.6459e-07
7.3132e-06
-1.789e-06
-7.9269e-06
2.9518e-06
4.0416e-06
-4.0868e-06
-1.7437e-06
3.0084e-06
7.4871e-07
-1.5814e-06
2.4236e-06
4.9464e-09
-8.472e-07
2.9064e-06
-3.8892e-06
-5.9854e-07
9.8022e-07
2.7382e-06
-1.2947e-06
-6.7869e-06
1.0674e-05
-3.7481e-06
2.4377e-06
-1.1257e-07
1.423e-06
1.0283e-06
-4.9824e-06
2.3573e-06
1.8354e-06
-3.1645e-06
-9.6754e-07
2.5054e-07
3.0743e-06
3.4141e-07
1.1287e-06
-5.5342e-07
-4.2664e-06
1.4518e-06
3.368e-06
-5.3413e-06
7.4003e-07
4.0479e-06
-6.6505e-06
2.9986e-06
-6.1443e-07
1.1705e-07
-1.3025e-05
6.2579e-06
-1.1787e-05
6.5624e-06
-2.1162e-05
9.1408e-08
9.2842e-06
1.6524e-05
-2.075e-05
-1.6937e-05
3.2343e-06
-2.6119e-09
1.3493e-07
2.951e-06
-3.5676e-06
6.1394e-07
3.7031e-07
1.2131e-06
1.3676e-06
2.7739e-06
-1.372e-07
-2.2662e-06
-2.3292e-06
2.3413e-06
2.7618e-06
-9.9916e-07
-1.1685e-07
-2.2498e-09
5.9655e-07
-6.7327e-07
-7.0554e-06
-2.0577e-06
2.3263e-06
-6.0671e-06
-1.0667e-06
7.8512e-08
-9.131e-06
7.8397e-07
6.2894e-06
-2.2575e-06
-8.9259e-06
2.0525e-06
-7.4369e-06
-8.8751e-07
-2.3196e-07
2.3099e-07
9.6739e-10
-1.3902e-06
1.9584e-06
-8.0015e-07
-6.9636e-07
-4.4289e-07
1.3702e-06
2.2085e-06
-4.295e-06
9.4887e-07
-1.4728e-06
2.4823e-06
4.5266e-10
4.4317e-08
9.041e-07
1.4214e-09
1.8318e-06
1.1374e-06
8.722e-07
-3.8414e-06
1.1567e-06
6.6047e-07
1.779e-07
-8.3837e-07
1.4904e-06
-2.1555e-06
1.4601e-06
-8.0948e-07
1.5049e-06
1.5943e-06
1.8341e-06
8.9381e-07
1.6929e-06
-3.8367e-08
-9.883e-08
1.4055e-06
1.8818e-06
7.3525e-07
2.559e-06
-5.8013e-07
-5.1438e-08
-4.8656e-07
7.8555e-07
-7.0627e-07
1.566e-06
-8.5973e-07
1.7611e-07
1.5428e-09
-8.8385e-07
8.7773e-08
1.6545e-06
3.6683e-07
-1.4275e-06
1.1485e-06
-1.6435e-06
1.4541e-06
5.563e-07
1.1089e-08
3.3856e-08
-2.2767e-08
1.0366e-06
4.1807e-07
-4.4584e-10
1.0781e-06
-7.5914e-09
2.74e-08
-2.5736e-08
4.6331e-09
1.538e-06
7.5424e-07
-2.1952e-06
-9.7081e-08
-1.4564e-06
-2.5471e-06
5.5415e-06
1.8515e-06
-9.6001e-07
-1.3714e-07
-2.365e-06
2.7602e-06
-2.3598e-06
-2.095e-07
3.7419e-07
7.9951e-07
2.9788e-08
-3.1891e-06
1.7207e-06
-2.4526e-06
1.5314e-06
1.1867e-06
3.2461e-07
-1.0427e-06
-1.4745e-06
-4.8481e-06
4.8525e-06
-4.3541e-09
2.8128e-07
-1.0269e-07
-5.0267e-06
3.6986e-06
-5.1966e-07
-2.8977e-06
6.3451e-06
2.206e-06
9.0351e-07
-1.7224e-06
1.3371e-07
6.852e-07
-5.2344e-07
4.0095e-07
1.026e-06
-1.6666e-06
7.0344e-07
4.3971e-07
-2.6642e-06
-7.2478e-07
3.3449e-09
1.9329e-06
-1.4716e-06
-4.6464e-07
2.6135e-09
7.3381e-10
-9.6154e-10
5.2609e-07
-5.745e-07
4.9373e-08
1.6532e-09
-1.8127e-09
4.2062e-07
-5.2198e-07
1.0317e-07
-1.5874e-10
-2.8432e-10
-1.8588e-08
3.7089e-08
-1.8217e-08
-4.4206e-10
1.5992e-07
2.4212e-07
9.91e-08
-9.4986e-08
-9.7981e-08
1.4564e-06
2.7151e-06
-2.3231e-06
-4.4801e-06
4.088e-06
1.0309e-09
6.5167e-07
-8.1088e-06
-1.8674e-06
-5.3742e-06
4.4478e-06
2.7938e-06
-4.6059e-06
1.8211e-06
9.1734e-07
-3.1262e-06
-3.0466e-06
7.986e-07
-2.6124e-06
2.0545e-06
-2.5683e-06
1.0001e-05
-1.0276e-06
-1.1586e-05
-9.4589e-07
1.0018e-08
-2.5614e-06
1.1897e-06
2.8894e-06
-2.5226e-06
-1.5565e-06
1.1853e-06
4.4088e-09
-9.7046e-07
2.1546e-06
1.0928e-09
1.4016e-06
5.1738e-07
-8.037e-07
-7.5205e-07
2.1201e-06
-5.6435e-07
-1.3821e-06
2.2122e-06
-1.6339e-06
-9.2382e-07
-1.3065e-06
1.4782e-06
-3.0093e-06
7.034e-07
3.1029e-06
-8.1678e-07
-1.8652e-06
-4.2088e-07
-6.898e-07
2.4862e-06
3.2902e-06
-1.2236e-06
-2.8834e-06
6.2548e-07
-2.539e-06
-2.3355e-06
1.5244e-07
-1.5247e-07
3.1726e-11
-5.4465e-07
2.6643e-07
4.3066e-07
-4.9439e-07
2.8495e-07
-3.3522e-07
-3.1014e-07
-3.3672e-07
6.093e-07
-7.292e-08
6.1582e-08
-5.9796e-07
-1.3765e-07
-1.4727e-07
8.9422e-07
7.2866e-08
-9.4704e-08
-1.1581e-07
-5.4409e-11
1.4285e-06
-1.0879e-06
-9.1466e-07
5.7402e-07
-1.6589e-06
8.6987e-07
2.2175e-06
-1.2918e-06
-3.8576e-07
1.8736e-08
-1.5594e-06
-8.2027e-07
-2.3767e-08
-1.7628e-06
1.3893e-06
3.9729e-07
-1.7918e-06
3.1894e-07
1.4491e-06
-8.1368e-07
4.2057e-07
-1.3987e-06
-2.2636e-06
-3.1287e-07
-1.679e-05
3.0458e-06
-7.8347e-07
1.4528e-05
-8.0291e-06
-1.0784e-05
2.0226e-06
-1.4729e-05
2.573e-05
-7.9549e-06
4.5312e-06
-2.729e-05
-5.4772e-06
1.3339e-05
-8.0861e-06
2.2454e-07
4.0468e-06
-2.0308e-05
3.1824e-06
9.373e-06
1.4222e-07
-4.8078e-06
-2.0576e-06
6.7232e-06
4.2617e-08
9.9623e-08
-4.8482e-06
-6.2585e-07
5.5166e-06
-6.0392e-06
-3.6167e-06
1.6141e-07
4.896e-07
-1.1198e-07
-5.3904e-07
1.1609e-06
4.1178e-08
-1.0407e-06
1.1805e-06
-2.3072e-07
2.1111e-07
-4.3443e-07
9.2e-07
6.9498e-07
5.3461e-08
1.7157e-09
-5.5384e-08
-3.279e-07
4.2447e-07
-2.0928e-08
-3.4924e-07
2.5819e-07
-1.9009e-07
1.1378e-07
2.4595e-06
1.7867e-06
-3.0741e-06
-1.1721e-06
2.4264e-06
-1.8433e-06
1.8764e-06
-1.1809e-06
2.6392e-07
9.9706e-07
-3.9129e-07
7.3859e-07
-1.317e-06
5.2869e-07
4.9702e-08
-2.6265e-06
2.5716e-06
7.935e-07
-4.7285e-07
6.4485e-07
-2.5351e-06
7.4539e-07
-2.7267e-06
-2.3567e-06
2.1757e-06
2.9077e-06
-2.7664e-06
3.9743e-08
-1.5512e-07
-2.0826e-06
-1.7041e-07
4.5335e-08
2.1118e-07
-5.1744e-08
-2.0477e-07
4.543e-08
-9.466e-11
3.9724e-07
-3.5441e-07
2.592e-09
-3.3309e-08
6.4173e-07
-5.6928e-08
4.3306e-07
-5.511e-07
1.7497e-07
1.844e-07
3.0708e-08
-2.7203e-07
-3.3713e-07
-3.6503e-07
1.1352e-06
-4.3821e-07
2.8548e-07
-8.4271e-06
4.6001e-05
-2.8431e-05
4.1756e-05
-2.6211e-05
-2.3973e-05
7.9104e-06
9.5378e-06
2.4308e-05
2.6899e-05
2.7013e-05
-3.3342e-06
2.2221e-06
6.0343e-07
5.0864e-07
2.4666e-06
-3.073e-06
-2.7279e-06
3.2695e-06
-6.3546e-07
-1.6741e-07
2.3221e-06
3.1696e-06
2.4208e-05
1.661e-05
-1.5087e-05
1.6626e-05
-7.6548e-06
1.5237e-05
2.4606e-05
-6.0656e-06
-1.9307e-06
1.5146e-05
2.6086e-05
-7.5931e-06
2.6374e-05
-3.6353e-06
-2.4421e-05
2.1105e-05
-4.2771e-06
-9.6428e-06
-2.0844e-05
1.1547e-06
-1.1585e-06
3.7963e-09
-3.943e-06
3.1888e-06
1.9089e-06
7.6245e-07
-2.6062e-06
-2.0993e-06
-3.926e-07
-3.3841e-09
-4.2808e-07
3.6076e-07
2.3808e-07
-1.7076e-07
-4.243e-07
-3.7903e-09
1.9506e-07
-2.0625e-07
-4.131e-07
6.8607e-07
-1.3027e-07
-1.0237e-06
1.6377e-06
1.1821e-06
1.3363e-06
-3.5421e-06
1.7728e-07
1.796e-06
-7.911e-07
1.3178e-07
1.6833e-06
1.2937e-06
2.1423e-06
2.0377e-06
-5.2964e-07
-2.1439e-07
1.8942e-06
1.202e-06
-9.5397e-07
2.8949e-06
1.0371e-06
3.1785e-06
-2.3189e-06
3.4234e-07
-4.1997e-06
3.2081e-06
3.8865e-06
-2.9973e-06
1.9762e-06
1.6216e-06
-1.891e-06
-2.0494e-06
-3.3117e-06
3.9794e-06
3.4514e-07
6.8551e-07
4.7468e-08
-1.9411e-06
-2.0691e-06
4.3554e-06
-2.3466e-07
-1.2883e-06
1.493e-06
-2.3464e-06
-9.0869e-07
1.7621e-06
-2.3305e-07
-1.9849e-06
3.7109e-06
7.3443e-06
-7.4098e-06
-1.6759e-07
2.3167e-06
3.1366e-06
2.908e-06
-3.3372e-06
-4.6883e-06
5.1175e-06
2.2274e-06
5.1135e-06
-2.5003e-05
1.6553e-05
1.0714e-05
-3.3728e-06
2.2013e-06
-1.4299e-05
9.6949e-07
-1.7933e-07
-2.3198e-06
-2.7456e-06
3.8105e-06
1.2549e-06
-2.3653e-06
4.5591e-08
9.8179e-07
-2.6616e-06
2.4847e-07
-2.0122e-06
-5.5583e-11
-3.5562e-09
3.6118e-09
-2.1457e-09
2.0902e-09
3.3983e-07
-1.6047e-06
1.2627e-06
1.2729e-06
-9.3662e-07
1.5299e-05
6.2111e-06
-4.0355e-06
-1.7475e-05
1.9804e-06
1.0795e-05
2.5235e-06
-9.7854e-06
4.329e-06
5.4237e-07
-4.1167e-06
2.9664e-07
4.4354e-06
8.6496e-07
-5.597e-06
-5.9534e-08
-1.4828e-07
5.0444e-07
6.3045e-07
-1.469e-06
7.7906e-07
1.6033e-05
-1.0967e-05
1.5315e-05
-7.1534e-06
-7.6781e-06
-4.8344e-07
-6.5261e-06
2.1685e-05
1.5592e-07
1.0362e-05
-1.2339e-05
-5.1763e-06
-9.5457e-06
1.3382e-05
-6.9462e-06
1.4175e-05
-6.3161e-06
-9.1322e-07
-1.4879e-05
-4.4063e-06
9.4912e-06
-4.8614e-06
-2.9785e-06
-6.2384e-07
7.4195e-07
2.8604e-06
-4.8938e-07
-1.6193e-06
-3.3256e-06
5.7367e-09
2.696e-06
-2.3322e-06
-1.4828e-06
-9.089e-06
5.3456e-06
-3.5534e-06
7.2968e-06
1.091e-07
-6.0171e-06
-3.1809e-06
-1.4031e-05
4.2614e-06
1.6835e-06
-5.5052e-06
1.5112e-05
-9.5158e-08
-8.814e-07
1.8889e-07
-9.4084e-08
-1.0739e-09
2.7935e-07
-3.0327e-07
-7.0171e-08
-4.9722e-07
-1.0483e-07
-5.6603e-06
-1.972e-06
4.1723e-06
3.46e-06
-3.023e-06
-7.2295e-08
-2.565e-06
6.7161e-06
-2.5805e-06
-7.1586e-06
5.1467e-06
-4.0259e-07
2.1732e-07
8.4841e-07
-3.7965e-07
2.7681e-06
-1.5346e-06
-1.0162e-06
8.497e-07
-1.287e-09
1.5648e-06
2.053e-06
2.1024e-06
-1.6068e-06
-5.0854e-07
1.2866e-08
-1.3726e-06
1.381e-06
2.094e-06
1.7269e-06
-2.2158e-06
-1.1179e-06
-1.0459e-07
4.5897e-07
1.5639e-06
6.0442e-07
-9.8132e-07
-1.187e-06
3.3695e-07
1.1224e-06
-4.6473e-07
-1.1466e-06
-2.4418e-06
9.1681e-07
4.071e-07
-1.7961e-06
-1.1105e-06
4.9075e-07
1.893e-06
-2.256e-06
-1.2774e-07
4.9715e-07
-6.3986e-09
-1.7309e-06
8.222e-07
6.2745e-07
-4.6532e-07
-1.7108e-06
3.1596e-08
-4.8211e-11
1.6793e-06
-3.4501e-07
-8.2243e-07
-5.4339e-07
-2.7041e-08
-3.174e-07
-5.7261e-10
-8.858e-07
3.0133e-06
-2.8241e-07
-1.8451e-06
1.0643e-06
-3.1179e-07
-1.6383e-06
1.442e-06
-7.4275e-07
-1.7413e-06
1.5589e-06
1.6245e-06
3.5734e-07
-1.9387e-06
1.9526e-06
-1.3901e-08
1.5638e-06
-2.3836e-06
-1.1188e-06
-1.5354e-06
-1.2838e-07
3.2276e-06
3.9711e-07
2.0129e-08
3.3789e-06
-2.5502e-06
7.6738e-06
-8.5026e-06
-2.1309e-06
-7.3968e-06
2.4258e-06
9.8457e-07
-5.9606e-06
5.7675e-06
-5.4725e-06
4.499e-06
-3.6229e-06
4.7327e-06
-5.6088e-06
-3.3031e-06
9.4928e-06
-1.6906e-06
2.0069e-06
-4.538e-06
-1.0918e-06
-2.4579e-06
1.1617e-06
1.8705e-06
-1.1915e-07
-1.3219e-06
-4.2943e-07
-5.6535e-07
1.9832e-06
4.526e-07
3.3728e-06
-2.6186e-06
-8.7335e-07
-1.3318e-07
2.9407e-06
2.8289e-06
4.2356e-07
-1.6289e-06
-1.6235e-06
3.6357e-07
-9.891e-07
-1.206e-06
-2.7808e-06
1.7948e-06
1.1262e-07
-2.4874e-06
-1.2824e-06
-1.7061e-06
1.5612e-06
-4.3024e-07
1.0818e-07
-1.3841e-06
-2.8498e-07
-1.7742e-06
6.0834e-07
-1.1585e-06
-1.3427e-07
6.8444e-07
1.7023e-06
4.6725e-07
-9.1639e-07
-1.3394e-07
4.6726e-07
1.8629e-07
1.8327e-06
4.473e-07
1.4982e-06
1.0959e-07
-6.4724e-07
9.8495e-07
-3.9612e-07
-5.1842e-07
1.0241e-06
-1.3644e-06
1.1546e-06
-5.1828e-07
-1.1011e-06
9.7214e-07
5.8056e-07
-1.4346e-06
3.3577e-07
9.3859e-07
-8.7645e-07
6.8153e-07
-2.2754e-06
-5.9867e-07
2.1925e-06
-1.647e-06
2.2829e-06
4.5635e-08
1.3735e-07
-4.2953e-07
-1.3407e-06
-1.6894e-07
1.3314e-06
-1.3407e-06
9.2475e-09
-3.9677e-06
3.3202e-06
1.9789e-06
9.051e-07
-1.0326e-06
-3.8401e-06
-3.8377e-08
-3.4779e-06
2.542e-08
2.4975e-06
9.5497e-07
6.7072e-07
-2.1082e-06
-2.0404e-06
2.297e-06
-4.9779e-07
-1.1285e-06
2.8132e-07
2.0411e-06
-2.0729e-07
1.7121e-07
-2.0747e-07
1.7602e-10
-3.5824e-07
-3.4701e-07
-2.4482e-06
-1.553e-06
2.1891e-07
3.7823e-06
-1.4471e-06
4.5204e-07
-1.4532e-06
-1.8351e-06
1.104e-07
1.7174e-07
-9.8235e-07
-2.2998e-06
1.0077e-06
-2.2554e-06
1.0389e-06
2.0875e-07
-2.3475e-06
7.0687e-07
2.6484e-06
4.6947e-07
-1.3156e-06
-1.4093e-06
-6.4567e-07
-1.2323e-06
-3.2265e-06
-9.9025e-07
2.4719e-06
-4.8348e-06
-2.3661e-06
-3.5644e-06
-2.4275e-06
9.0133e-08
-1.2829e-06
1.5405e-06
-2.6851e-06
2.5371e-06
1.1972e-06
-5.0172e-06
4.164e-06
-3.993e-06
3.4529e-06
5.4736e-07
-4.7062e-06
7.0591e-07
3.5195e-06
-6.6637e-08
-2.2923e-06
-2.6877e-06
3.5191e-06
-2.2919e-06
-3.4228e-08
1.1803e-06
-3.3206e-06
-1.4939e-06
1.521e-06
-2.7142e-08
-2.9129e-06
5.103e-07
-2.9398e-06
2.4759e-06
-5.6158e-07
1.9034e-06
-1.258e-06
-8.3817e-08
1.3149e-06
-4.0615e-07
-1.4703e-06
-1.4918e-07
1.1992e-06
2.6486e-07
1.4692e-06
5.7491e-07
-1.6022e-06
1.3463e-06
-2.5301e-06
4.2444e-07
2.6805e-06
4.0583e-06
-2.908e-06
-2.7526e-06
-4.7037e-07
1.9986e-06
6.2032e-06
-1.4572e-06
-4.4954e-06
2.2792e-06
3.4536e-06
-4.0238e-06
7.8003e-07
-4.5805e-06
-6.9497e-07
4.0711e-06
-8.0607e-08
-3.2105e-06
2.546e-06
3.8043e-06
2.3477e-06
-3.0332e-10
1.4863e-10
1.5469e-10
3.6692e-08
-3.6929e-08
-6.6321e-11
3.0367e-10
7.9048e-08
-4.2661e-08
4.5195e-10
3.0255e-08
4.5812e-08
-4.7757e-08
-2.831e-08
3.025e-08
4.4546e-12
-5.13e-07
5.1036e-07
3.2888e-08
6.0737e-08
-5.2792e-07
7.4906e-07
6.619e-07
-3.3364e-06
1.9254e-06
5.6785e-07
-2.6051e-06
2.7863e-06
-9.3076e-07
-5.2986e-07
2.1225e-06
-5.333e-07
-7.1985e-07
7.198e-07
4.2746e-11
5.8017e-07
-5.6209e-07
-7.3792e-07
-2.5734e-06
5.4232e-08
1.9251e-06
5.9406e-07
-1.0994e-06
-8.9383e-07
-2.4015e-06
5.4111e-07
1.9146e-06
-1.5892e-06
-1.9117e-06
1.303e-06
1.3419e-06
2.4953e-06
-3.6208e-06
1.5639e-06
-4.5137e-07
1.3828e-06
2.7121e-06
1.5478e-06
-2.8426e-06
-2.5524e-06
2.4028e-06
2.9922e-06
-3.2691e-06
-2.0897e-07
4.5975e-06
-1.6755e-06
-1.4952e-06
-1.4268e-06
2.1997e-06
-1.5465e-07
-3.0255e-06
-1.9191e-06
-9.3872e-06
-1.953e-05
1.7193e-05
1.1724e-05
-3.3225e-05
2.0481e-05
3.356e-06
1.5495e-05
-3.2368e-05
-1.6352e-05
-8.7123e-06
4.6774e-06
-5.5628e-06
-1.0565e-05
1.597e-05
1.58e-07
-8.8404e-06
9.9445e-06
-6.6669e-06
3.1396e-06
4.2682e-06
-1.6248e-05
6.2662e-06
-1.3692e-05
-1.4928e-06
-9.0251e-06
1.8673e-06
8.6507e-06
-1.5167e-05
5.5309e-06
8.1431e-06
-1.9163e-05
4.7011e-06
5.4366e-06
3.8068e-06
-3.8136e-05
-2.8214e-06
1.836e-06
1.7012e-06
3.648e-09
-3.3848e-06
2.7582e-06
-2.9164e-05
2.9791e-05
-2.8736e-06
-5.1101e-07
-1.2256e-06
-1.648e-06
1.7997e-05
-4.6125e-06
-1.461e-05
2.6691e-05
-5.9355e-06
-4.161e-06
4.149e-06
1.2045e-08
6.5626e-06
-3.7305e-06
-6.9931e-06
1.5941e-05
-4.2926e-06
-5.0857e-06
1.7687e-06
8.0476e-06
6.1246e-06
1.2042e-08
5.9057e-06
-2.0368e-05
-8.3088e-06
-2.8409e-05
6.6666e-06
4.8052e-06
-1.2262e-05
-1.385e-05
-2.2962e-06
-3.0763e-05
9.3363e-07
-6.8621e-07
-4.6444e-07
2.1703e-07
3.343e-07
4.6506e-07
1.1229e-06
3.6756e-08
-7.0073e-07
4.1655e-07
-1.7194e-07
-3.3034e-07
-4.7013e-07
2.8658e-06
-2.1983e-06
4.0497e-08
-7.08e-07
5.0155e-06
7.769e-08
-5.1391e-07
-1.79e-06
-2.7252e-06
-1.5152e-06
6.0304e-06
-2.6844e-06
2.9664e-06
-2.072e-06
-1.6673e-06
-4.6319e-07
-5.539e-07
-8.5718e-07
1.7358e-06
-2.3742e-06
2.7853e-06
-8.7435e-07
9.8942e-07
-4.2208e-06
-3.1522e-06
2.1628e-06
6.3084e-11
-2.337e-10
1.7062e-10
-4.7955e-11
1.1104e-10
1.6665e-06
-2.3671e-06
1.937e-07
-6.0644e-07
-1.3229e-06
-9.7678e-07
-6.7437e-08
-1.4602e-06
-4.6907e-07
3.8722e-07
-2.1235e-08
-3.6598e-07
-5.8955e-07
-1.8196e-06
1.731e-06
-8.207e-07
-4.4644e-07
-3.1765e-08
1.2989e-06
-1.4568e-06
-1.7122e-06
2.3483e-06
1.7137e-06
2.5445e-06
-5.7151e-06
1.9707e-06
-3.7058e-06
2.4814e-06
1.8172e-07
3.9516e-06
-2.1157e-06
-1.1549e-05
1.1215e-05
-4.0273e-07
7.363e-07
-6.9846e-06
3.8114e-06
5.6598e-06
-5.4573e-06
-7.292e-07
6.8426e-06
-6.5607e-07
-4.0903e-06
-1.8501e-06
4.8311e-07
4.5237e-07
6.1316e-06
-1.6231e-06
4.8473e-07
1.8552e-06
3.3313e-07
-2.6999e-06
-2.6824e-06
9.9494e-07
4.3873e-06
-3.3922e-06
-2.2792e-06
2.9715e-06
-2.4673e-06
2.3733e-07
-2.8512e-06
4.8342e-09
1.6771e-06
6.2791e-07
-2.3099e-06
1.622e-06
-2.1833e-06
5.6619e-07
1.0122e-07
1.2536e-06
3.2233e-07
4.6525e-07
2.4577e-08
2.7841e-06
1.1568e-06
-4.6262e-07
-9.2095e-07
2.2675e-07
-7.0117e-07
2.7974e-06
-8.1168e-07
-2.4484e-06
2.2444e-06
-1.4817e-07
3.5392e-06
3.5162e-07
1.0586e-06
2.5437e-06
1.8893e-06
-6.6001e-07
2.0722e-06
-1.586e-07
6.3687e-07
-9.7455e-07
1.3141e-06
-1.0709e-06
-2.7306e-06
3.4072e-06
1.4837e-07
-2.2415e-06
4.225e-06
9.7703e-07
-2.0409e-06
1.2128e-06
1.5166e-06
-6.8851e-07
1.9008e-06
-2.9697e-06
-9.7197e-07
-2.3292e-06
2.7516e-06
7.9034e-07
-8.4925e-07
1.0943e-05
-9.6605e-06
-1.6847e-06
5.9661e-06
5.001e-06
1.2675e-06
-2.5826e-06
-2.5216e-08
2.2362e-06
-1.8148e-06
-7.6324e-07
3.3133e-06
1.8107e-06
-1.0819e-06
3.5656e-07
-1.4588e-06
1.7391e-06
-2.6548e-07
1.0426e-06
-7.2119e-07
-1.5677e-07
-8.2247e-07
2.0442e-06
-7.2271e-07
-1.263e-06
-5.8471e-08
-4.8641e-07
2.2427e-06
2.8786e-07
2.4468e-06
-2.2774e-06
-8.921e-07
-1.762e-07
2.1366e-06
-2.7398e-06
9.0664e-06
-1.8483e-06
-4.4782e-06
8.0915e-06
-1.0098e-05
-7.3367e-07
-3.3517e-06
2.4469e-06
9.9711e-06
3.1173e-06
1.6225e-06
1.4511e-08
2.5974e-08
9.22e-08
-2.772e-06
4.6418e-06
2.3552e-06
3.4254e-06
-2.1485e-06
-1.1285e-06
6.1977e-07
3.3634e-08
1.0658e-06
3.2136e-07
-4.2324e-06
-5.7193e-07
7.1006e-07
4.0943e-06
-2.0829e-07
-2.4707e-07
-3.7771e-06
-3.5492e-06
2.7683e-06
-3.3401e-06
-4.1736e-07
2.2712e-06
-6.4075e-06
-1.8801e-06
-9.1331e-08
-1.0408e-06
-7.1882e-08
-8.3412e-07
8.1471e-07
-1.1058e-06
2.0413e-06
2.1981e-06
-3.3757e-06
4.3308e-06
7.736e-07
4.8401e-06
1.5845e-06
3.6899e-06
3.3416e-06
1.5164e-06
3.758e-06
1.414e-05
-1.2649e-05
-3.0151e-08
-1.4607e-06
-9.1979e-06
1.8892e-05
4.4463e-06
1.6726e-05
-1.3851e-05
-1.5524e-05
-9.2789e-07
8.456e-06
2.759e-06
-3.0303e-06
7.9658e-06
2.2109e-07
-8.001e-07
-7.3868e-06
3.2641e-06
2.8216e-06
-1.3463e-06
4.525e-06
5.7542e-06
5.0362e-06
-9.8512e-06
-9.3927e-07
2.1757e-06
5.7768e-06
2.5405e-06
1.6083e-06
3.5005e-06
1.2157e-06
-5.2671e-06
-5.8225e-06
6.0581e-06
-2.3414e-06
-3.5932e-06
2.5194e-06
-9.9317e-06
2.3232e-06
2.9965e-06
-4.7481e-07
-3.3218e-06
1.9178e-07
1.9149e-06
8.8979e-07
1.2368e-06
2.2191e-06
-2.6299e-06
8.9002e-07
3.0806e-06
1.5701e-06
-2.1632e-06
1.5501e-06
-3.7803e-06
-3.5236e-07
-1.6195e-06
-7.0348e-06
1.2424e-06
2.1991e-06
-3.3775e-06
-2.8587e-06
-5.8919e-06
-7.4172e-06
1.2054e-05
3.6972e-07
1.2777e-06
1.8099e-05
-7.8404e-06
-1.1679e-05
1.421e-06
-4.507e-06
1.1523e-05
1.1083e-05
1.9662e-05
-2.8288e-05
7.8536e-07
1.2125e-05
-3.2441e-07
-1.1996e-06
1.3504e-07
1.389e-06
-1.5248e-06
-2.4076e-07
1.4411e-06
-9.9797e-07
-3.5666e-07
1.5502e-07
-1.2859e-06
-1.0859e-06
8.6295e-07
7.2793e-07
-3.526e-06
4.1469e-06
5.8333e-07
7.324e-06
1.5142e-06
4.5478e-06
3.877e-06
6.9302e-06
-1.0224e-05
9.8717e-07
4.404e-06
4.1507e-06
9.5331e-07
-4.2318e-06
5.8222e-06
-3.116e-06
-2.6664e-08
1.8447e-06
1.298e-06
-1.3712e-06
-1.9089e-07
-1.5538e-06
-2.4328e-06
1.3392e-07
2.2723e-06
-3.0336e-07
7.8164e-07
-1.8549e-06
-8.9018e-07
1.9634e-06
8.6518e-07
1.1683e-06
-1.2517e-06
4.0394e-06
1.5319e-06
-3.7501e-06
6.5948e-07
5.2153e-06
6.7947e-06
4.9209e-07
-1.1632e-08
-4.8046e-07
-1.3882e-07
1.6222e-07
4.6869e-07
1.1332e-06
-1.1446e-06
-2.9319e-10
5.243e-07
-2.152e-08
2.7316e-06
-1.3938e-06
7.1603e-07
1.4938e-06
2.1555e-06
1.5364e-06
-5.2456e-06
4.455e-06
-1.5833e-06
2.5041e-06
1.8407e-07
-1.5015e-06
2.8741e-06
-4.6705e-07
1.8924e-06
8.8223e-08
-1.7966e-06
1.3616e-06
3.4051e-06
2.7788e-07
-2.6049e-07
-9.9625e-07
9.259e-08
5.0783e-07
-9.1221e-07
3.9196e-07
5.6175e-07
-8.6112e-07
1.1223e-06
-1.0127e-06
-3.0279e-07
2.4727e-07
-4.1884e-07
-5.9725e-07
9.8278e-07
-3.4922e-07
-4.8024e-07
4.4475e-07
-3.0966e-06
3.3014e-06
1.6059e-06
-4.6733e-08
-1.1606e-06
-3.0157e-06
9.5778e-07
1.6065e-06
2.2325e-06
-3.6455e-06
-1.6027e-06
-4.4772e-06
2.9107e-06
2.5243e-06
-1.0767e-06
-1.168e-06
2.2345e-06
3.5751e-07
1.1922e-06
3.9267e-08
4.6794e-08
2.4394e-06
1.5181e-06
-3.6e-06
1.2681e-07
2.3519e-06
-2.2303e-06
1.6799e-06
1.2324e-06
-6.82e-07
1.9826e-06
-1.9056e-06
-2.3074e-06
-4.9243e-07
1.5818e-06
5.9054e-07
1.0813e-06
4.0893e-07
-2.4477e-06
3.645e-06
3.8454e-07
-1.8327e-06
2.2957e-06
3.9549e-07
-1.147e-06
2.9129e-06
-4.0965e-06
-6.5085e-07
1.8345e-06
-4.1814e-06
6.6954e-07
6.4247e-06
2.4701e-06
-2.8266e-06
-3.7401e-06
-1.7042e-06
-7.0717e-09
-1.7888e-06
5.7266e-07
2.5649e-06
-1.3488e-06
5.4389e-07
1.1209e-06
-1.7052e-06
3.2549e-06
-3.1083e-06
1.947e-06
1.3545e-06
3.0335e-07
-1.6831e-06
8.1208e-08
1.2663e-07
1.2913e-06
4.0129e-07
1.2253e-06
1.4722e-07
1.6908e-06
-1.0774e-06
3.6452e-07
-1.4438e-07
3.6037e-06
1.7631e-06
-2.3973e-06
-2.9695e-06
1.9493e-06
2.6438e-06
3.1339e-06
-1.0545e-06
-3.1639e-07
4.4318e-06
6.5147e-07
-9.1864e-07
2.6895e-06
4.3566e-07
4.5501e-06
-4.8649e-06
1.8513e-06
-2.0964e-06
1.9196e-06
4.7269e-06
1.5554e-06
8.0326e-07
1.2458e-06
-5.5601e-07
-6.1337e-07
-7.6464e-08
-2.8093e-07
6.1457e-07
1.1035e-06
-3.2886e-07
-1.3307e-06
4.3771e-07
3.8491e-07
3.7002e-08
2.314e-07
5.4486e-07
-8.1326e-07
2.8358e-07
-9.8933e-07
-1.702e-07
6.8655e-07
2.5682e-06
1.1231e-06
-3.2917e-07
-3.3621e-06
1.1803e-06
-2.013e-07
2.3824e-06
9.4061e-08
-1.3534e-06
1.5304e-06
2.0323e-06
-1.8924e-06
1.1807e-06
3.0381e-06
-3.3202e-06
-6.6752e-07
-3.7193e-06
2.2648e-06
1.7313e-06
3.2803e-07
2.2031e-08
-5.2187e-06
5.6723e-06
3.3039e-07
3.5439e-06
-1.6745e-06
2.5034e-06
-4.1782e-06
1.7357e-06
-2.5254e-06
-4.3931e-06
5.1828e-06
4.9071e-06
-2.4314e-06
3.8072e-06
-4.8808e-06
-3.495e-07
1.7474e-06
-1.5282e-06
2.4079e-06
2.795e-08
-1.6436e-06
3.843e-06
3.7307e-06
-8.081e-07
-2.1735e-06
-9.122e-07
3.8938e-06
-3.3897e-06
-1.9354e-06
4.517e-06
2.1269e-07
-2.859e-06
4.7282e-07
7.8259e-07
-3.9596e-06
-2.7494e-06
-5.0069e-08
2.4358e-06
3.6369e-07
-3.8494e-07
1.8753e-07
-2.0649e-06
1.7505e-06
2.6431e-07
-2.137e-06
-3.1283e-07
-2.5474e-06
-3.2804e-06
3.6352e-06
2.1925e-06
-5.1503e-06
2.6366e-06
-3.3734e-08
-6.5492e-07
-8.9817e-07
-1.7273e-06
-3.377e-06
-2.4282e-06
6.7735e-07
2.2643e-06
7.24e-07
-7.7157e-07
5.9243e-07
1.7529e-06
-3.5155e-07
1.4094e-06
9.4937e-07
-6.0589e-07
2.0795e-07
3.4657e-06
1.7731e-06
-2.2533e-06
3.3031e-06
1.1037e-05
4.9867e-07
-9.4828e-06
9.9718e-07
3.9096e-06
6.13e-06
7.8946e-06
-5.7875e-06
3.6462e-06
1.4043e-06
-1.7449e-06
-4.0368e-06
5.475e-06
7.6149e-07
-1.2138e-06
-1.4186e-06
1.442e-06
7.1651e-06
-4.723e-06
-3.8842e-06
7.9738e-06
-3.9847e-06
-2.5471e-06
3.6153e-06
8.3061e-06
-4.7563e-06
-2.3453e-06
-7.3952e-06
-1.3246e-06
-2.9199e-06
1.1786e-05
-7.5413e-06
-5.5289e-06
1.2361e-05
-8.157e-06
-1.1258e-06
-1.5298e-05
1.3504e-05
1.0084e-05
-1.6739e-05
-2.8003e-06
2.7509e-06
1.555e-06
-1.5056e-06
3.5366e-06
-5.1397e-06
-1.8238e-06
-1.4444e-07
4.7192e-06
-2.3803e-06
4.0931e-06
-2.5518e-06
-1.6943e-06
4.1017e-06
-1.9306e-07
2.5826e-06
-4.9413e-06
3.7483e-06
-6.3216e-06
-1.931e-06
1.252e-06
-1.0466e-06
-1.269e-06
3.1656e-06
-3.8003e-07
1.8421e-06
-2.8598e-06
-1.3386e-06
8.5226e-08
2.5974e-06
-2.2582e-06
1.6619e-06
-1.3554e-06
-2.2134e-07
2.5262e-07
2.7274e-07
4.6135e-07
1.0952e-06
1.0729e-06
-8.9231e-07
-1.2758e-06
7.1691e-07
-5.3651e-09
3.8363e-07
2.857e-06
-1.5652e-06
1.4657e-06
5.9687e-07
-1.7007e-06
1.7456e-06
-1.3177e-06
2.953e-06
2.5828e-07
2.0366e-06
-2.303e-06
-1.1319e-06
1.3983e-06
-2.7653e-06
3.8897e-06
1.8276e-06
-1.8138e-07
-3.9493e-06
1.7046e-06
-2.6423e-06
2.9492e-06
-2.4165e-07
-2.52e-06
1.1567e-06
1.6111e-06
2.1664e-06
1.4261e-06
-1.4303e-06
1.3638e-08
6.4507e-07
-2.7163e-07
-1.9719e-06
-2.8219e-06
2.7861e-06
-7.118e-07
-1.1896e-06
7.4344e-07
1.158e-06
-3.7738e-07
-1.5814e-07
-1.7628e-07
-8.6659e-07
-1.88e-07
-6.4906e-07
-5.9491e-07
-1.1002e-05
4.8139e-06
-5.9438e-07
1.954e-06
-1.1752e-05
-6.8154e-07
-1.5509e-06
-2.0082e-06
-8.3058e-07
1.4836e-06
-1.3346e-06
1.7067e-06
5.972e-07
-9.0354e-08
-1.2759e-06
3.1643e-06
-1.4123e-06
3.8319e-06
-1.9865e-07
-2.6483e-06
4.4985e-07
2.0855e-06
1.2966e-06
6.4119e-06
-1.9022e-06
-4.7084e-06
2.7049e-06
4.1569e-06
3.0686e-06
-2.358e-06
5.2246e-07
-1.233e-06
4.0788e-06
1.6946e-06
-2.5398e-06
-1.7204e-06
1.0986e-06
-9.7305e-08
9.4428e-07
1.1858e-06
-2.1418e-06
-1.4907e-06
-3.8927e-06
-1.114e-06
-1.0212e-06
3.3589e-06
4.1518e-06
8.4768e-06
-9.3449e-06
-3.2837e-06
6.5524e-06
-8.3052e-07
1.3265e-05
1.7643e-06
-6.4476e-06
9.3758e-07
9.4616e-06
7.446e-06
-1.436e-05
1.3134e-05
-4.75e-06
7.9991e-06
6.3293e-06
-1.4328e-05
-4.607e-06
8.635e-06
-1.1179e-05
7.1507e-06
1.1562e-05
6.4502e-07
-1.2207e-05
-9.0859e-06
1.1092e-06
-6.3837e-06
-9.2446e-06
1.5665e-05
-1.5506e-05
-6.1437e-06
-2.2883e-06
9.5415e-06
6.0564e-07
-1.5993e-05
-1.6608e-06
1.2416e-05
2.3789e-06
9.0511e-07
2.9902e-07
3.0664e-07
-3.5514e-05
-2.1636e-05
1.5554e-05
4.1597e-05
-4.3964e-06
2.5728e-06
1.4141e-06
1.1436e-05
-4.3378e-07
1.0388e-06
4.057e-07
-1.4445e-06
-1.1442e-05
2.9443e-05
-2.0194e-05
2.1933e-06
4.4023e-06
5.3466e-06
6.9153e-06
-1.6664e-05
-6.0409e-06
1.8722e-05
-8.2788e-06
8.8568e-06
-7.4422e-06
1.2424e-05
1.1e-05
-1.9617e-05
-8.2565e-06
2.3805e-05
-2.1589e-05
2.1948e-05
-8.5107e-06
-7.1243e-06
-6.3133e-06
4.3002e-06
1.5361e-05
2.4805e-05
-3.1741e-06
-2.1043e-05
-5.8775e-07
-3.2676e-05
1.6089e-05
8.0762e-06
-3.4678e-06
-8.823e-07
-2.8325e-05
-1.9391e-06
-4.1489e-06
8.5674e-06
-2.4794e-06
1.8418e-05
-9.3789e-06
-2.9158e-05
2.0118e-05
-1.5181e-05
-2.0485e-07
1.09e-05
4.4858e-06
5.7898e-06
1.112e-05
1.8124e-06
-4.4119e-05
1.6118e-05
3.3348e-05
1.1213e-06
-2.0416e-05
-1.3073e-05
6.4219e-06
-3.8832e-06
2.3624e-07
-2.7749e-06
4.8898e-07
9.8012e-07
-1.4691e-06
2.2082e-07
-7.0405e-08
-1.5042e-07
-4.9291e-06
2.5028e-06
-7.5396e-06
9.9659e-06
1.8915e-07
-1.8351e-07
-5.6353e-09
1.2179e-06
-6.7743e-06
5.8776e-06
-3.2123e-07
1.0993e-06
-4.0187e-07
-6.9746e-07
1.66e-05
-2.9216e-05
4.1755e-06
8.4402e-06
1.5256e-05
-1.2485e-06
-2.2286e-05
3.5547e-05
-8.3938e-05
4.1538e-05
6.8536e-06
1.8617e-05
-1.9958e-05
2.3327e-05
-8.9638e-06
-3.0715e-05
-4.3015e-06
5.1734e-06
-2.1688e-06
1.2969e-06
-2.6386e-07
4.5301e-07
1.7999e-06
-2.6773e-06
-1.5787e-05
-1.3222e-05
2.8477e-05
-2.0964e-07
-1.4192e-05
4.3879e-06
9.8044e-06
-8.7199e-06
-3.3599e-05
2.0612e-06
-5.9618e-06
1.0167e-05
-3.4822e-08
2.618e-05
-2.6145e-05
-1.3708e-05
-1.4219e-07
-3.6182e-06
4.1072e-06
-3.653e-06
1.5203e-05
3.1235e-07
-1.5516e-05
4.2994e-06
-8.6739e-09
1.9012e-07
-1.8145e-07
-1.5936e-08
-2.1704e-08
3.7641e-08
6.7741e-06
-6.0911e-07
-1.6505e-06
-4.5145e-06
-5.3475e-06
8.5493e-07
1.4608e-06
3.0318e-06
-1.8075e-05
-9.9893e-06
-6.5776e-06
-1.4542e-06
4.6116e-09
-2.0548e-08
-2.2016e-07
-2.8566e-05
4.7075e-06
2.4079e-05
2.1984e-06
-1.2183e-06
-1.2691e-06
-5.8814e-06
4.2933e-06
-8.6965e-06
-4.9417e-06
-9.1288e-07
-8.1822e-09
-1.4452e-05
7.4105e-06
2.546e-05
6.9633e-06
1.8359e-06
-2.3161e-07
7.0267e-10
1.2247e-05
-6.6371e-07
2.0075e-05
2.3066e-07
4.0267e-05
-1.0675e-05
2.7479e-07
-2.7408e-07
1.6373e-05
-5.1104e-06
-9.3946e-06
3.7443e-06
-2.3116e-07
-3.3078e-07
-1.0282e-05
3.7557e-06
1.7818e-06
2.5045e-05
2.1315e-07
-1.6752e-05
1.6539e-05
8.3355e-07
-1.7464e-06
4.4381e-07
-6.0698e-06
6.0612e-06
4.9899e-06
-2.3383e-06
1.6109e-05
-8.1443e-07
-1.7745e-05
-1.5126e-06
1.4814e-05
-1.0101e-05
3.8892e-06
-3.8846e-06
1.0506e-05
7.7949e-06
-1.4411e-05
1.6029e-05
4.6098e-07
3.9725e-07
-8.5823e-07
-8.6244e-08
1.3043e-06
3.7474e-07
-6.9068e-06
8.2111e-06
8.0767e-07
-4.3293e-07
2.5032e-05
-3.282e-05
5.0447e-06
2.9446e-05
-3.7384e-06
-2.2903e-06
-2.3417e-05
-2.5013e-05
-8.2832e-06
9.5689e-07
7.3263e-06
-1.6047e-05
2.1255e-05
5.1024e-06
2.9411e-06
4.4415e-06
8.4679e-06
2.0865e-06
9.7374e-06
1.2969e-05
1.3612e-06
4.2872e-06
2.4862e-06
-2.4272e-07
-4.2096e-07
1.9506e-07
4.4997e-07
9.5393e-06
3.2106e-05
-1.6802e-05
-1.0783e-06
1.0428e-05
2.6839e-06
-6.3376e-06
3.5675e-08
-4.0896e-06
4.0814e-06
-1.0858e-05
-9.8072e-06
-2.8893e-06
-9.1455e-06
-7.9618e-06
6.5951e-06
1.3492e-05
1.3741e-05
3.2401e-06
-8.2795e-06
8.5254e-06