/*--------------------------------*- C++ -*----------------------------------*\\
| =========                 |                                                 |
| \\      /  F ield         | OpenFOAM: The Open Source CFD Toolbox           |
|  \\    /   O peration     | Version:  v1706                                 |
|   \\  /    A nd           | Web:      www.OpenFOAM.com                      |
|    \\/     M anipulation  |                                                 |
\\*---------------------------------------------------------------------------*/
FoamFile
{
    version     2.0;
    format      ascii;
    class       volScalarField;
    location    "4";
    object      p;
}
// * * * * * * * * * * * * * * * * * * * * * * * * * * * * * * * * * * * * * //

dimensions      [1 -1 -2 0 0 0 0]


internalField   nonuniform List<scalar>
7155
(
13.5008
15.2676
18.248
15.4883
31.4783
28.5705
33.5881
31.7493
36.6064
33.7732
28.5348
23.9832
27.4117
29.1444
28.7405
32.7062
32.6082
26.0915
23.9206
26.4864
26.5287
30.9551
30.8075
44.2097
47.4097
42.673
39.6044
40.8097
19.3388
20.9507
18.92
18.5572
16.8641
15.9927
12.509
12.27
12.0156
11.4733
11.6929
30.4249
30.3358
28.2511
27.9844
30.4131
29.92
29.5733
29.9022
29.9099
27.8697
26.2374
30.8787
40.1103
38.1387
38.4578
40.0616
35.48
36.1179
28.8002
30.3038
14.2394
13.815
13.8091
13.5481
15.2993
14.1634
14.9443
14.3901
15.2702
16.9438
16.9234
15.9148
14.8789
17.7174
16.006
12.9021
13.045
15.3227
32.1989
38.1616
33.0439
38.568
33.6322
39.3278
30.4875
41.1448
44.9479
41.7406
41.8801
44.0292
34.504
25.9395
24.2365
27.1434
26.1689
21.5195
23.2632
21.4655
16.3942
16.548
14.4894
13.9136
15.2678
39.501
40.9221
36.3734
40.413
37.3522
33.8268
36.4165
15.6252
18.7472
17.8236
23.7946
26.198
27.9507
25.1566
30.5572
29.723
33.196
32.0961
13.6253
14.5169
13.3735
12.2469
12.7772
15.3544
14.9044
17.4354
19.0715
17.5763
18.0239
21.7649
22.4729
34.3178
33.0218
29.4731
27.8731
23.1819
25.0698
29.8983
35.4826
28.6778
28.096
25.2318
23.7956
24.9396
19.3581
20.1391
19.4317
20.254
18.3931
17.4476
16.4392
18.3744
17.5847
16.4963
15.9175
13.1362
13.8323
12.8969
12.6448
11.8337
12.5568
15.2189
18.3212
39.1416
37.3238
35.945
34.144
32.0688
33.6307
30.8611
27.6595
27.5193
37.1373
32.4013
35.2447
34.2552
34.7995
33.8326
32.7364
31.9766
33.0195
33.7385
32.5769
20.9385
23.2404
20.7927
18.717
12.8513
11.4213
13.0844
14.9234
14.8319
15.6016
12.2166
12.2667
10.4807
9.3337
9.6998
9.9509
10.0968
11.3966
13.5866
41.8941
42.2982
36.0598
15.0338
15.2631
16.922
18.1101
18.9637
17.5958
17.049
30.4357
28.5378
25.6743
27.4922
10.829
11.1497
11.2904
11.6344
12.7056
11.7251
13.5127
12.4167
12.7594
7.9305
7.3723
8.0373
8.8316
2.8749
2.6941
4.289
3.614
4.3505
3.5945
4.3206
4.7632
10.8116
11.1881
12.5165
12.2775
15.8525
17.2241
11.062
13.4114
19.0463
18.9986
15.9132
19.7899
17.408
18.5677
19.8168
5.5068
5.6304
4.6738
3.9569
4.1411
5.4387
5.2731
5.365
3.1731
1.9219
0.16367
0.51899
23.885
24.2392
28.6905
28.2408
18.5508
18.7958
23.5013
23.1149
5.3816
5.0599
4.8812
4.6988
5.6555
5.4357
5.0383
4.8407
1.9543
4.3161
7.8535
4.5575
11.5317
12.2979
10.4779
9.6286
9.0414
9.688
7.4653
8.061
11.4554
11.742
10.8801
17.9482
16.7116
20.75
22.1174
9.3037
10.3491
9.6117
9.1189
30.4956
30.6617
25.914
25.2948
29.2618
26.8623
25.1198
23.0139
24.9055
23.0752
22.7244
22.7663
22.9875
24.4252
22.4123
24.7475
13.1991
12.5934
16.8641
17.2641
17.7828
17.7153
15.6652
15.3718
16.5283
15.933
22.0118
22.6566
24.8888
23.3999
19.7873
19.9861
22.2276
21.9062
19.1238
20.5307
23.0692
21.3359
12.9163
15.39
16.8565
15.0333
9.6752
10.8082
6.0732
5.9096
7.0884
7.1886
6.8176
2.7813
3.7689
3.8266
4.7887
12.7655
14.1246
18.7616
18.3697
15.4696
-0.52203
-0.44711
0.89308
1.0886
20.2553
22.986
21.4677
18.4402
6.2819
6.3897
4.622
5.0683
7.0309
6.3818
8.0126
7.838
9.282
8.0726
8.9743
9.834
10.7476
4.2618
3.7238
0.75266
2.4896
1.5965
3.1459
3.2778
1.8705
7.4586
7.5798
6.7272
5.8977
5.9344
28.0506
28.005
24.4876
24.4448
1.5326
0.08006
3.2711
2.5042
5.4741
4.495
6.299
5.5092
8.5808
7.5817
8.177
6.9656
7.6827
6.3579
8.6973
8.5977
9.39
6.4879
7.3945
8.249
6.3466
5.6928
7.2675
10.5899
10.1408
9.4943
9.3745
10.3459
9.7642
9.4383
9.5895
4.3309
3.1697
6.6245
5.5454
20.6952
20.2641
23.1959
23.7882
3.2292
5.0014
4.9192
3.725
3.7233
4.3769
5.0918
7.0903
8.1984
7.879
8.8129
33.631
32.2562
34.3549
33.1081
37.0366
33.1208
0.62626
1.4789
4.3463
4.3384
1.5841
16.3988
16.9578
16.7173
17.1436
15.0586
15.7631
15.6467
15.5985
14.3408
10.8444
10.4231
8.8885
8.9155
10.9631
10.3049
12.6871
12.1805
12.7889
11.6439
13.1871
13.7354
12.8862
11.7316
4.7039
4.9745
4.9145
4.3011
4.0286
4.5617
4.4062
3.8982
4.8071
21.2975
20.9473
23.118
23.4103
11.4132
14.7297
10.9844
14.1889
10.5099
13.5636
8.9975
6.0697
5.9631
3.5371
7.9472
9.5957
9.3646
8.076
10.5461
31.5253
33.3539
38.174
36.1557
20.1311
20.5108
20.9953
21.1476
33.2948
33.7703
36.4786
37.2237
34.5723
28.629
32.6695
60.7745
62.9704
67.8683
66.7738
64.7188
23.8628
26.0309
23.4982
21.1987
21.032
24.4496
25.0994
28.2501
28.5687
9.1813
7.1389
7.6751
6.6278
7.0897
9.5141
11.5757
12.792
11.3898
7.3654
8.557
11.1177
11.3536
12.1391
12.4427
8.7265
23.0904
21.6334
22.5802
21.4361
22.4589
24.7293
25.1675
28.2796
26.5661
24.9397
11.2283
12.6635
14.2686
12.9574
33.7494
36.0041
30.9285
30.9796
27.7606
20.7174
22.3389
20.8804
25.0716
27.3949
20.8019
22.5896
22.029
23.7118
13.1708
12.8541
12.462
12.1984
26.3929
10.841
10.3121
11.3942
10.9186
14.4508
12.9642
11.4689
12.751
9.8425
9.4937
8.2727
13.7321
14.5928
12.5937
13.5566
30.7448
27.3625
9.9922
11.252
28.7373
17.821
12.2917
12.3508
12.4743
12.1862
12.202
10.1385
10.3319
9.7584
10.8644
10.0383
19.5587
20.798
19.3642
20.8959
7.7657
7.3514
7.4373
9.4131
8.179
11.2746
9.7645
10.9085
9.6135
10.9408
14.1434
13.5594
28.8215
27.7643
26.6315
25.8377
17.522
16.5317
17.4339
16.4883
24.1734
21.7111
26.0782
23.3523
24.092
30.5869
16.1616
14.5934
15.8643
16.6931
25.0028
27.5417
26.3031
29.338
15.2284
14.9741
16.5372
15.981
14.4913
13.981
21.9927
23.335
12.5784
12.6627
15.7882
17.4139
18.227
18.4805
30.9715
32.5776
29.2381
35.2649
31.7245
10.7135
10.7544
12.9368
13.3251
13.0634
13.9526
13.7282
16.9516
16.7301
17.5592
17.0616
17.7259
16.6829
33.1334
32.2418
33.4116
32.592
37.8175
36.9925
13.6624
12.9703
14.0763
11.1689
9.4278
12.2021
9.89
35.1183
34.6264
32.6437
28.587
29.1179
35.9849
38.0045
35.9748
37.7321
15.5192
-0.096931
7.1418
7.2827
7.1299
4.5407
6.2202
5.6338
5.9642
6.3161
10.7466
11.6574
6.8849
7.9701
6.4785
7.5378
11.8018
10.8748
11.6115
10.7734
8.3293
9.5562
5.7094
7.0613
4.7808
5.7696
7.1476
7.1297
6.4516
8.0089
7.4453
8.2636
8.9854
8.2146
8.8411
10.8108
9.8207
10.15
9.1527
7.4456
9.653
11.1231
12.3961
11.579
10.9009
9.8298
11.5196
10.0821
27.2645
26.6697
28.4809
8.4882
7.6421
9.1252
8.1792
7.2803
7.4749
7.0242
7.2329
14.9787
14.067
12.5479
11.8042
29.6144
29.5738
28.1032
5.8726
4.7304
6.3478
23.0699
20.4678
19.7783
14.1795
13.992
15.0417
9.7391
10.1995
7.8058
7.892
8.2423
7.9746
9.5034
9.44
9.0649
9.8149
9.4366
10.1471
12.6891
12.9176
14.1576
14.4025
5.7499
6.5031
6.1748
4.3451
3.8612
9.1571
6.9869
21.8751
22.1828
23.6271
24.213
9.478
6.7439
7.4416
3.0117
1.8088
0.33173
-0.58721
-0.1077
12.8852
14.6147
10.3571
12.3871
4.7961
4.9287
2.8566
2.8226
3.7021
3.7094
3.8796
10.628
11.7111
13.273
15.3153
14.9425
10.3657
9.8278
8.722
8.6001
6.9492
6.3299
6.4867
5.3725
7.4013
6.2765
4.8979
8.7592
8.5364
9.3615
9.164
9.5297
8.6092
8.3158
7.4429
8.0531
13.0952
13.3891
8.9966
10.3059
10.127
11.1451
18.8975
17.1193
18.8011
-0.20562
0.63604
16.1987
14.8108
14.9303
7.9008
6.7422
7.8939
6.4006
7.2035
6.4634
8.1874
9.8465
8.3858
8.9545
7.8475
11.6949
7.4515
8.1145
22.9051
23.3873
20.6648
40.1508
41.6788
38.6399
36.4864
41.002
60.8802
47.017
48.7715
50.4298
52.3315
39.6264
35.0388
47.974
40.5025
39.262
42.4178
63.3217
43.8508
49.2057
45.3888
47.8451
37.5113
41.7022
55.2907
56.9045
58.8676
52.7737
53.715
62.3203
64.381
27.488
43.0767
47.2295
39.8104
58.0808
67.1064
50.3127
17.5921
55.622
66.5299
67.3315
55.2489
48.2678
54.9108
44.0973
43.0874
18.4795
43.5415
53.9221
50.2356
46.6596
37.9312
52.9264
18.3454
68.8616
28.3866
62.0763
69.2624
37.3272
58.2622
42.0683
29.0491
29.93
31.0715
63.4563
62.1333
35.1163
43.01
63.0837
58.4695
62.1973
24.7845
74.0594
21.2092
67.7621
61.9486
45.3447
50.6454
44.4405
55.7519
53.7239
45.1349
57.4122
68.3972
68.6477
46.1949
52.5115
48.7482
76.2784
41.434
42.5452
34.2763
51.9767
76.0369
55.054
48.1745
41.6251
32.1668
31.2949
63.8983
65.1338
29.017
21.7744
18.7175
62.152
62.1386
57.1859
57.0038
55.9019
33.9994
53.7935
44.8851
46.8668
38.2256
59.0198
64.3943
44.4182
45.8973
16.9474
40.1264
46.3185
49.396
58.2954
53.5951
57.0594
58.7192
67.5894
25.745
55.7721
60.8271
19.3948
22.8752
34.8974
49.4728
45.2432
50.3247
45.054
50.9921
43.4133
54.7979
30.538
29.9431
26.7798
69.2357
46.8595
34.383
39.2175
59.8499
39.2462
34.821
23.8214
24.193
43.3254
52.0407
40.1558
45.5468
37.961
31.389
41.9914
39.092
59.5261
31.8584
42.0695
35.8499
30.1288
26.3965
31.3312
26.6023
28.7429
27.9731
35.7581
37.8985
32.2334
35.3308
37.1702
38.2501
59.9687
24.4546
27.1461
44.2152
38.0017
27.2901
43.4339
20.3116
72.9565
48.2556
49.56
5.2496
1.7781
4.9595
4.1294
3.4086
10.5966
14.6606
11.3381
15.0051
13.7703
10.7265
13.1073
12.8968
13.0402
12.4616
8.6218
9.7915
11.7086
7.071
7.0868
6.7523
7.5325
8.6261
7.7503
18.1972
6.0184
10.7649
5.2454
1.8816
4.9708
4.2793
10.2367
12.6591
33.7321
31.5178
29.7614
4.6011
9.7424
8.4263
8.7811
8.5433
10.6969
16.6337
14.6263
12.5622
13.8663
15.3134
13.3465
11.2977
10.7282
12.4414
12.3991
22.9807
25.7487
20.9274
19.8464
8.3218
15.9279
17.2858
14.7608
10.4744
2.5616
2.4311
3.1278
2.3366
11.6438
17.1415
17.4464
19.7877
17.413
4.0379
7.5706
5.623
6.0262
7.0592
16.0774
18.5836
18.0296
11.7682
12.9257
8.5378
9.8576
9.9489
11.4029
12.0018
5.2475
-1.9426
-1.3257
-0.10292
1.7432
3.6842
-0.025589
1.8752
8.2412
8.6153
7.8736
28.5804
22.6776
14.1923
25.6677
23.1296
9.4909
9.0398
9.855
10.8492
9.2105
9.8289
11.6039
4.7281
3.8758
0.69094
-1.0968
2.2537
3.8584
3.6505
1.9977
17.7541
13.1983
25.5174
24.4572
6.3196
-0.41241
3.0652
7.6125
6.7008
6.0993
3.8647
3.6977
27.8064
24.7336
21.3598
21.6068
20.8044
11.205
2.7596
2.2482
1.7613
-0.20415
3.5936
2.2932
9.2793
14.1288
14.7497
8.9298
8.8309
9.9537
11.6924
12.5493
8.2452
4.4666
8.9632
9.522
7.755
8.9495
6.6576
8.1007
27.2562
27.7173
5.809
3.0978
7.1829
8.356
6.4555
6.5355
5.5855
5.7785
8.2821
8.8093
13.2709
9.1129
9.8484
8.8769
9.6637
11.0701
25.816
7.7563
13.3643
16.2394
17.1442
11.387
14.4398
12.4808
15.5407
17.3782
12.9345
16.1327
7.7526
11.6338
14.9281
12.7574
16.1139
25.5511
21.9666
28.4626
33.631
8.0178
7.881
32.7574
31.999
1.2177
3.0054
14.1737
16.0794
11.4411
13.2541
18.0427
22.8867
13.9466
17.8754
17.2528
17.8854
28.916
22.6674
8.9456
7.891
17.8787
20.74
18.0831
17.422
18.0228
19.1558
15.0831
10.9927
10.2823
6.2243
11.9255
10.052
11.6782
9.8647
21.0319
21.5787
15.9775
24.1749
22.0049
21.9094
20.0076
19.6499
15.4298
11.9921
13.0308
17.519
8.59
5.2682
10.0838
9.579
12.8959
10.4746
10.7643
10.6252
10.3683
11.5968
11.4111
-0.11507
-0.057742
0.2536
1.2142
-0.38684
12.9751
14.6735
15.369
7.3753
-0.46952
2.9733
10.3165
12.5839
15.4446
11.5152
11.1104
12.0553
12.618
13.2653
12.2752
2.0968
4.1292
4.2983
6.7592
11.6863
2.6762
3.89
5.6846
4.8569
5.8967
5.2513
6.4579
3.3619
8.8847
7.209
5.7697
5.9849
12.1344
7.4666
20.2485
20.3503
26.1519
23.0256
22.7828
22.5729
7.8598
7.9538
13.3744
8.2601
8.0407
9.5599
9.5305
10.6713
24.9903
18.7529
23.3306
19.1864
21.5352
21.7371
21.3358
21.2899
14.6897
20.746
9.539
4.7055
9.1087
12.67
16.48
14.883
17.4663
14.2988
15.1254
14.5128
15.4112
8.7362
19.3843
38.475
6.4602
8.1001
6.1256
8.2841
7.8713
6.7225
7.4277
6.7866
31.1315
28.6362
33.9376
36.9664
31.8473
35.0792
30.7241
33.6132
29.653
26.024
34.4779
30.5298
31.9801
29.727
6.6524
15.6167
19.5925
17.3632
10.1455
14.2783
13.3956
16.698
31.6488
29.355
12.4885
13.5996
27.883
-0.20675
1.373
-0.48254
2.0657
0.61258
6.7363
27.0703
16.5099
11.9155
12.3233
14.3601
25.3563
18.959
21.994
19.1044
23.431
19.7247
21.5486
34.7813
9.2206
12.1826
9.8261
11.1026
30.4965
-1.0885
4.7999
3.9566
1.2958
5.7373
2.3934
5.42
6.1113
5.5037
6.1128
4.8685
5.2687
6.3447
4.6494
5.8624
4.1835
5.748
5.471
6.4988
6.025
32.7912
22.3506
29.5205
31.6528
7.7264
11.378
5.5511
8.4843
8.8744
8.6323
11.9764
3.5259
9.8228
8.7459
8.1053
8.9672
9.8001
11.7593
13.068
10.3014
9.9053
6.5366
6.3534
6.4963
11.7668
8.4317
11.1671
19.0526
10.442
13.516
24.6914
19.3125
28.0246
25.2321
23.833
19.7101
2.7267
6.8648
4.1416
5.7368
5.0705
1.8614
2.3632
-1.6811
0.76566
1.4535
2.6972
3.037
-0.29754
2.909
2.7547
3.6164
3.5948
4.1783
-1.6629
6.3867
-0.32674
2.3958
4.4035
3.553
5.2023
4.5569
4.8572
11.1738
7.5991
7.5996
13.2694
11.5437
2.6459
2.1145
4.0051
8.8853
9.9853
4.837
33.0227
26.2016
7.9859
0.88788
0.40139
0.18271
3.5579
3.4811
1.4268
25.6076
12.825
1.8639
1.4305
2.1959
2.3408
3.9417
7.5474
4.083
8.9134
19.3429
22.2419
18.6031
13.2352
19.1627
17.174
6.734
20.7543
21.4725
18.2252
12.5517
14.8212
19.2675
25.4886
29.1049
17.3313
22.5695
25.9233
25.8495
20.9525
23.5878
22.2534
24.6775
12.5437
11.1894
18.5351
17.1074
25.6287
28.6791
29.4165
32.1613
22.3453
25.7241
26.795
29.3102
28.5732
14.2157
14.0156
16.5403
22.4278
24.901
22.3342
20.5116
22.919
14.7418
24.3917
13.3537
14.3379
15.5082
17.4724
6.9086
9.1789
19.1307
32.7187
29.5904
24.6672
25.3019
21.2378
24.0054
25.7345
23.944
25.9853
11.5345
4.7528
18.6842
6.8964
7.5668
12.4065
8.5889
13.5726
3.3643
-0.93657
-0.49781
-0.28384
0.23978
0.97252
2.3963
0.80834
16.8454
19.4867
19.6225
6.442
6.5078
8.2803
6.8106
5.6
6.8299
24.741
23.8593
30.9642
29.3511
11.6633
3.2597
3.848
13.5397
11.4682
10.9087
7.0803
6.175
2.8881
6.089
4.2699
5.5095
11.7557
12.0512
3.2023
8.248
2.9737
9.1651
7.7691
7.6987
5.1877
5.2252
28.6831
21.8026
25.9491
28.2111
24.6043
22.2741
25.6386
28.36
10.2876
7.743
14.3455
9.8096
11.1476
13.0689
14.1482
19.6958
6.2711
15.7134
15.8216
12.95
14.5847
11.5985
14.0158
20.0364
8.742
14.0803
12.9379
13.0055
4.9059
0.97623
1.1834
2.6489
3.8415
3.9872
2.6508
-1.4334
-1.2622
1.4372
4.446
1.7928
11.1113
14.6302
0.96219
2.9425
10.6355
6.2209
12.5329
9.5307
11.7362
15.5642
11.3461
12.9362
21.9935
7.2403
7.5007
6.8801
6.2673
20.2053
25.6557
18.9723
21.5567
26.5466
18.1335
17.3266
15.1414
15.9573
15.4421
16.2497
13.0189
18.1728
23.4958
25.021
12.7389
17.5124
21.9516
17.3798
21.1079
16.4941
30.4665
37.5112
29.9883
28.4843
31.3567
29.0578
33.7848
31.2955
0.99319
-1.1895
2.2427
5.1314
1.431
4.138
13.2552
2.6228
2.5099
2.295
5.6671
7.9571
5.6504
3.273
5.2187
7.1169
5.0852
4.4967
4.5875
5.6144
26.0723
8.5498
15.1063
9.5511
6.14
8.553
8.0192
10.7466
10.1062
8.0219
6.4426
5.6401
5.2896
6.392
22.7095
16.4982
14.9323
11.8992
14.2853
8.8965
9.5055
8.7977
6.5837
8.1248
7.4856
8.8392
7.8646
20.7383
26.6707
23.0889
24.4514
9.5369
9.9908
3.6573
8.3351
9.9653
7.9139
9.1256
7.3226
12.5844
2.0394
2.0261
1.9401
7.2334
3.9938
3.5621
1.8226
24.9686
30.6862
27.638
2.3728
16.8482
4.4038
6.013
5.0478
11.7954
24.4751
13.0356
26.1375
22.9174
20.9834
24.4869
18.6153
22.5465
32.2089
26.2689
23.8551
23.2357
10.0251
12.2757
11.1767
31.9257
10.1157
9.3729
13.4937
3.7575
3.0217
9.6107
9.2718
8.3161
28.2743
13.9551
23.3974
19.7884
11.0155
15.1706
12.4893
20.1679
18.7873
5.3738
0.53558
4.1445
2.5004
7.5789
5.0231
5.4183
5.896
5.5427
6.0448
16.4145
19.6039
-4.8932
7.2361
15.9731
10.4077
16.7947
10.4064
6.4885
6.4028
0.31093
0.70306
5.9794
2.6703
6.0722
4.6634
19.17
24.3569
21.853
16.5383
28.8473
31.2749
23.057
20.4403
17.8371
22.297
23.3175
21.1801
21.4864
20.1235
20.1358
17.0603
20.7285
10.4043
8.7612
4.0622
7.0731
7.7366
7.2173
5.5928
6.8422
24.4197
2.2704
5.8616
4.2785
6.0116
5.9042
6.0738
4.6395
4.6719
3.0791
2.7728
6.8365
5.0416
4.279
6.7183
9.3093
6.7004
0.96353
6.9001
4.7446
4.5975
6.3714
4.1711
5.9048
8.7102
13.7231
10.5636
11.1014
16.0056
10.4881
12.3348
6.4331
9.7506
11.0333
13.8998
11.9366
8.8541
13.9024
10.5246
-0.22811
-0.046872
-0.089233
1.0237
-0.44783
1.1713
6.3509
6.0311
10.5896
9.3865
6.8428
12.7329
15.7408
11.2162
9.7721
11.4693
11.9026
13.505
28.5301
22.4607
30.8565
25.8971
26.3723
24.6554
27.4613
29.012
12.2358
7.352
8.5627
7.4907
7.4667
7.9522
8.979
8.9017
22.355
24.4996
26.9919
30.469
27.7061
25.3576
23.8988
26.3271
18.7793
23.3254
28.5748
25.2548
19.0753
22.8121
16.5938
7.897
6.377
3.7985
15.1346
8.0977
13.2404
19.6384
17.6445
15.1936
17.0647
17.1011
16.2836
9.0527
13.76
16.726
14.1707
13.9309
5.2203
1.5639
1.9611
7.4578
6.1214
5.4538
3.9534
3.5465
4.6659
14.3652
12.0061
7.5507
17.715
9.6833
23.6433
18.2443
10.8285
21.3391
24.9838
18.3642
22.3636
15.5189
19.7297
15.1626
10.4385
18.1871
5.4545
10.3484
9.6335
14.9418
14.7908
8.5264
9.333
13.3122
10.145
9.0942
10.5121
10.4336
11.6395
0.31398
-0.96033
-0.77956
0.39038
4.7547
3.0519
2.2754
7.3069
2.1689
5.6445
5.4829
3.5312
5.8079
3.9929
8.9399
7.782
6.391
6.6442
0.90726
0.85992
7.1758
4.4961
1.4436
2.9112
10.6994
8.6256
10.3509
10.6558
12.502
9.2474
10.7848
10.1538
10.5812
11.4411
10.1913
10.9407
5.0028
8.6374
7.2016
8.4517
36.0903
33.3099
38.9957
16.3678
13.6771
16.5888
14.3738
14.7094
17.8901
14.747
8.7802
9.8819
7.0706
3.3812
9.0962
7.5619
7.5391
10.5366
11.1377
8.5391
5.7216
1.0955
4.6414
4.5611
4.0946
-0.16117
-0.48307
4.296
2.9886
0.066126
1.1062
29.9716
20.9551
26.3285
24.4487
23.949
3.4793
3.0733
7.6494
4.6213
4.4201
6.4142
9.8496
11.1167
11.724
12.8111
2.7165
4.0175
3.052
4.1722
3.8498
5.2578
31.1536
9.6185
11.0972
10.7084
13.0024
11.7683
10.7949
11.5334
10.5552
32.7038
36.3967
14.7017
6.0877
10.2525
10.8297
10.682
9.0885
9.6224
3.9746
8.3516
5.8144
10.5988
10.0387
10.7587
11.0093
11.7105
12.0822
6.0164
4.0876
2.616
2.3151
2.6896
2.6414
3.3028
2.6458
4.1713
2.568
3.0232
4.8075
1.9456
2.3227
2.8549
3.3774
7.9351
9.9976
4.9125
4.8132
4.2096
4.1274
1.7501
0.57377
4.3414
3.8538
2.6899
2.7714
15.0081
12.0239
31.1437
34.2637
25.0058
25.1143
33.7943
5.5087
3.8453
10.1452
5.7879
5.5619
5.5468
1.1554
1.3681
5.8806
5.1229
3.3059
3.2011
-0.11471
-0.022299
4.7648
1.2151
3.2094
6.9356
3.6314
9.2856
9.1634
6.9711
8.6807
6.4825
8.1174
8.855
10.7258
10.7999
-0.039195
0.035287
0.060479
5.6995
4.138
2.2845
0.54043
2.4058
9.1042
7.7587
14.8345
10.3424
8.6103
10.5873
9.2833
11.1427
12.2882
16.6719
12.9126
15.4171
3.7153
8.5361
6.7598
6.0535
8.1442
6.7046
23.9593
23.872
24.233
26.2942
39.9475
31.9227
9.5515
9.4756
39.7056
34.3269
39.6811
39.835
35.9443
38.1524
16.3579
23.7867
25.6529
23.4838
12.3746
20.8279
31.6276
32.1485
31.1076
27.5201
28.3064
17.1932
33.4247
13.7351
15.9436
14.0784
33.3566
39.534
35.3719
27.2212
29.87
30.1487
39.2547
37.6227
37.1998
18.5286
13.1214
13.8761
30.6596
27.7846
21.3285
13.886
16.1378
12.9447
14.0449
13.6412
14.9679
14.9467
16.7393
12.973
13.9226
37.0636
37.9087
43.533
26.0521
21.8703
24.4851
42.389
40.3086
41.5044
20.8233
19.8342
19.718
19.6213
19.4421
24.1636
20.2472
19.7092
19.9964
26.6908
34.2817
29.5327
31.9027
15.5249
15.7626
16.0279
15.1467
34.3926
36.9979
37.3374
44.0596
42.6094
42.2145
19.0042
12.1355
10.9409
15.5427
21.5881
24.3909
24.7301
25.5546
35.2869
17.666
16.8236
14.5185
15.0602
31.746
38.5858
37.3865
39.3655
39.2812
30.3408
25.428
35.4896
29.1514
36.5974
32.5573
31.876
27.7837
28.4247
12.6833
27.4032
31.8731
29.6108
17.8862
35.1913
35.9225
14.9267
22.6207
18.6171
20.6382
22.1975
14.572
12.8112
13.4293
21.2746
41.8081
42.0663
25.6722
29.0848
28.9137
9.3505
8.2201
8.0834
15.6077
10.0966
10.957
24.4217
25.4241
12.9582
12.2468
32.6734
31.464
26.1199
25.5167
17.1225
12.2167
28.0286
28.1303
11.0915
12.0094
20.36
20.4483
30.4271
13.4283
13.7373
32.5734
31.7367
9.833
16.6824
16.9695
14.7386
15.6157
34.5048
11.5008
26.9789
25.2358
16.3661
14.7095
25.3545
24.8785
26.4451
18.0696
19.8719
33.4616
32.0587
14.0183
14.1754
25.6194
175.4454
178.1768
185.8501
180.0111
180.6862
173.5934
304.7441
214.6727
436.3349
367.0426
180.2058
438.7033
163.4949
449.5757
101.1138
447.6168
454.7902
205.5681
210.723
208.1976
209.3786
207.025
209.6954
374.816
377.7362
148.1282
151.2343
178.8673
354.3466
355.0422
128.0047
184.3723
360.0524
359.3024
385.3054
429.7927
433.2829
432.7141
417.0928
62.4358
201.2008
127.5413
206.9116
283.3907
455.4333
451.6849
460.9198
220.0119
216.3602
459.9995
207.1527
210.0402
438.4892
432.8483
440.4249
481.9785
435.1307
195.4412
195.7011
191.9934
194.057
193.9687
195.859
199.4044
202.2773
198.8647
177.4982
354.6944
357.5802
341.5629
345.1051
206.6899
343.9753
346.6102
208.1057
159.6622
429.5414
426.4058
171.2734
163.9065
165.0701
161.8786
164.0531
162.5499
357.5027
347.4325
351.317
348.8035
358.9227
349.9532
191.2461
541.1863
541.8772
548.329
166.7673
169.7832
189.7023
193.0155
186.4864
183.5521
187.6473
188.3749
178.5865
185.6287
191.8856
191.1138
190.7388
180.3974
179.353
178.089
220.645
176.4768
182.4789
203.8664
207.1559
376.7573
120.2817
199.9267
202.2915
206.9273
203.8155
204.0009
210.8547
203.0428
206.7995
200.3603
211.9218
183.6322
125.8644
193.6297
196.2172
199.4292
207.1007
208.5514
209.7548
190.3902
196.8811
256.8996
254.2008
210.6007
210.8055
197.8465
194.0381
206.2363
116.4382
197.8334
195.7003
120.2472
197.4899
201.9458
162.3209
200.5477
201.6788
197.7635
189.4892
183.8895
185.5805
180.0376
177.2178
198.5027
180.1635
192.8267
198.4303
193.9089
184.5942
183.8599
180.4483
193.0254
189.7761
180.9029
172.9681
175.783
380.7893
384.9902
181.7255
176.0648
204.2897
179.5698
185.4551
182.5379
199.309
196.0394
551.7689
538.267
194.8755
203.7767
201.4156
199.1584
201.385
193.3602
214.2488
201.7455
203.8137
199.6379
174.0221
179.927
205.3487
192.1837
170.3943
173.2874
144.5063
146.7348
209.2521
183.5742
177.6281
212.8297
213.0306
88.461
192.4748
228.6088
199.1736
460.1428
453.1526
454.0698
456.0146
137.4239
192.4976
135.1196
213.4622
215.3172
542.5519
191.4426
205.0657
189.013
189.1627
249.6099
249.9136
262.1657
263.1573
320.2409
218.7733
284.8884
202.0652
259.8188
263.0334
199.7161
547.6389
192.1904
299.9358
207.1489
260.98
268.7743
175.8537
175.2502
200.4851
207.3421
182.6708
181.8678
179.7737
187.3587
127.7723
180.8958
188.6037
186.6642
267.8712
302.6686
214.6857
99.315
210.0365
204.7767
222.8473
224.7571
223.8535
225.9167
235.6589
237.1731
230.3868
232.287
228.9499
80.7764
186.7325
229.6592
227.6154
266.6062
447.5691
300.2447
553.8195
203.9894
205.077
189.3261
189.1339
243.8227
238.6042
239.1829
244.0866
202.7369
244.8586
248.8095
199.9249
94.7611
249.427
251.5041
187.0277
185.6467
132.276
457.4642
457.2288
454.773
460.8394
453.8603
444.7963
450.0426
461.9286
167.0292
160.8301
289.3063
290.9903
189.618
238.1713
235.3865
219.142
223.3591
227.9005
147.9462
149.4505
159.5141
150.8924
152.7018
153.6107
149.3801
157.1688
152.4614
154.1765
159.8433
159.3995
241.0933
213.4822
538.1067
164.2
116.1891
164.8203
161.7067
163.6872
165.5724
165.3341
121.9503
89.4497
81.2645
83.7619
173.8987
176.8118
179.1132
181.5728
176.9561
160.8474
181.2904
170.941
206.619
193.9594
181.7711
188.3299
179.1906
180.2523
176.9513
187.601
182.4474
94.9981
178.3432
191.0713
187.1779
180.4935
184.465
161.7554
174.8616
226.4241
146.6779
141.7127
170.4299
196.977
202.4643
200.3177
465.5853
185.2774
176.5648
169.3151
192.3078
272.4564
192.8647
189.6322
202.8213
437.7872
157.2706
184.4782
184.9518
175.6245
209.4847
196.1468
185.4286
165.2138
138.381
144.0121
433.5516
188.5958
140.4331
178.1825
165.9854
225.1423
225.9527
160.148
217.6171
169.2909
189.7139
161.4421
231.7833
220.7113
233.4958
224.0184
119.1465
168.7872
164.1454
131.5193
176.8833
93.0726
193.4629
195.1513
209.7261
163.5475
163.2662
178.6872
178.1458
173.4949
181.7003
194.0354
185.6484
310.5252
192.0087
191.2977
172.3073
194.1191
202.6736
202.0084
173.9204
157.6117
125.6996
150.2085
134.6582
423.8835
223.1968
223.8579
219.8568
220.1964
192.0922
182.3015
204.0861
196.6167
186.6336
210.8137
207.8362
259.2407
203.2965
198.9829
190.2942
467.0765
192.3904
185.86
201.0812
256.9546
257.3868
198.0563
200.0704
259.0499
261.0691
260.1581
206.5326
203.84
191.4406
200.5383
272.4873
141.0722
346.0894
174.7065
275.8499
345.3942
340.5536
186.9069
185.3232
179.285
213.7743
257.7112
258.5658
180.9435
214.096
268.7045
191.2756
146.2219
176.9312
442.1371
385.609
154.8268
201.5532
284.479
273.4944
212.1892
216.2894
213.392
189.8229
213.89
214.366
193.9943
227.1913
339.5188
278.7929
207.5027
177.3993
169.7059
550.9468
192.0314
192.5834
175.9068
210.4381
178.4914
208.3244
190.1364
193.513
195.5364
554.0089
209.792
205.7938
218.3228
269.3369
261.7511
260.2434
267.0387
267.5346
263.8676
266.5756
266.9644
260.893
169.3368
144.375
223.4586
188.2624
187.8881
254.3186
186.1024
187.9164
189.4818
178.598
167.0089
186.9699
190.0013
189.2328
175.33
187.3121
213.3865
183.9486
185.3794
275.3799
273.0897
283.0988
209.0178
299.6514
185.8141
243.9099
467.3215
184.1522
234.9946
327.7791
171.0426
199.0975
301.5145
433.4534
427.4727
428.7349
436.0643
202.4513
440.3426
428.406
434.9839
205.6728
438.9645
427.9561
101.1855
137.3016
137.3984
138.4947
100.9726
162.6665
185.8441
304.6197
360.7983
442.0885
492.5148
489.5934
321.4638
325.7861
318.7407
315.1463
200.8235
201.2218
221.641
217.3469
186.3426
232.91
174.1378
194.64
191.5073
248.141
249.6646
245.9691
224.5229
192.5987
83.0393
82.8341
186.1481
181.3593
250.2259
209.6829
244.6748
169.1833
483.8659
69.7341
176.4497
80.0528
80.6743
171.0805
215.5768
165.7957
473.4568
480.0157
169.92
171.6976
162.8034
167.6748
480.5056
479.2846
360.6286
211.3943
479.0869
476.492
472.6001
469.019
237.292
162.8902
198.2187
373.0352
162.1219
170.3266
199.6836
186.2951
191.0762
213.7993
468.8288
191.5861
185.8102
188.2443
308.0198
222.1917
200.8033
288.0219
189.1757
168.6563
223.0378
192.0959
184.044
182.5914
208.7627
176.3179
187.4443
115.349
173.7963
156.7592
228.9103
177.7479
164.3961
181.738
177.0501
109.6933
223.4134
155.5382
155.1934
160.7708
167.869
181.3402
262.6905
209.1788
417.8912
196.3613
156.1823
159.5785
483.547
180.6478
193.1076
168.3227
365.1522
173.4283
196.5542
179.9779
218.7323
187.2067
168.8145
185.0512
473.2956
168.056
225.4865
170.0369
231.609
171.0023
226.6364
175.579
143.4121
183.3876
197.2011
216.9875
215.733
215.2983
212.0928
209.056
201.3169
133.5811
223.1354
211.1903
185.9711
179.4127
161.575
160.0398
166.0888
161.5433
165.3391
193.4381
186.5655
182.1249
181.7123
164.5673
162.5721
273.4218
206.125
179.1636
199.2258
196.9027
157.6247
136.8158
135.1685
152.6862
165.4028
304.4078
101.9914
107.9515
162.6108
150.8786
187.981
132.674
169.4557
183.0858
186.9623
181.9092
230.237
165.1116
443.4553
138.5097
147.3167
169.2157
176.3144
175.656
175.6478
251.9705
102.5491
163.4313
108.5821
196.7472
179.8262
199.6018
214.0135
140.5996
186.4592
158.4443
156.9831
152
191.7878
181.6531
159.9629
243.018
185.4709
190.1813
179.1264
301.7187
179.2737
235.2153
289.6175
179.3843
179.7121
181.2982
194.0595
181.5191
179.1773
173.124
371.9007
210.8842
290.2386
195.2014
208.317
161.3503
185.6788
221.9527
195.5059
199.414
183.6462
137.8328
278.254
217.4581
209.7822
195.3018
248.8649
175.3128
194.5913
223.9726
169.5447
441.0961
456.1127
445.6585
187.1683
183.8311
191.4568
174.7072
183.1442
258.2042
187.4535
259.7623
243.5798
260.0701
256.8221
256.4387
263.9929
184.0307
421.5558
186.0028
263.806
171.7001
183.9076
222.667
235.5462
456.9976
189.5396
186.9543
185.8973
80.6833
238.0336
184.617
183.6567
435.8342
275.9891
293.7746
273.1412
193.743
177.9467
135.0741
270.7421
277.0425
270.682
269.4619
273.3245
257.8109
256.513
255.4795
258.3935
408.1347
413.9186
418.0737
351.9585
421.5686
422.3254
419.9861
417.1965
413.6642
411.0829
416.8709
265.5834
263.3738
290.9192
348.1672
223.6648
181.2672
367.9742
180.2329
364.9478
188.9364
86.5453
92.0663
94.0532
88.6113
84.2508
88.0713
203.5968
119.251
164.9954
158.0229
145.6891
208.7636
164.1695
193.9325
486.9498
193.5938
178.4703
177.4155
197.685
168.022
170.8048
233.3696
219.687
448.4891
165.265
166.025
212.6353
164.2353
159.7312
96.2297
95.3836
175.2004
165.4628
164.8926
238.2299
206.7651
211.9151
201.0976
272.1551
218.9593
222.5859
144.2386
206.1398
178.5284
467.9867
212.7713
186.6507
207.787
314.7399
308.9661
305.3203
302.3259
189.6001
186.9094
305.8643
310.7572
220.2436
169.7086
192.6098
170.9624
224.9613
174.2253
205.2903
196.3059
265.4177
283.5213
275.7527
237.0362
532.8796
539.6721
225.1358
235.1631
263.0094
435.7852
219.7859
264.3823
79.7576
243.0788
246.8375
191.0452
537.3821
238.055
183.7191
89.6694
53.8022
279.9145
272.5393
171.35
274.5597
194.7061
187.3363
265.1278
300.6016
300.9313
302.2592
302.6802
192.1399
194.3668
197.0032
161.345
185.0661
177.56
259.2492
292.4871
291.292
275.7067
276.2706
267.5786
266.0055
282.5586
268.6223
258.6836
191.0246
270.9551
269.5013
290.0253
259.5212
263.1088
285.4419
275.763
278.5264
268.7037
453.4119
470.0341
547.6645
548.81
255.4201
259.5211
354.5132
257.1695
189.3672
340.6426
341.3888
439.9904
308.2113
275.6324
183.1892
312.5287
311.8946
294.0258
297.6644
300.7387
302.7618
103.083
219.7298
304.8941
324.029
279.8222
308.8005
282.7417
303.4881
306.9369
295.5763
282.6785
126.5943
205.8202
198.8612
198.3195
161.5879
340.2269
351.3554
541.6047
199.9568
344.8916
478.0958
209.631
343.2202
483.4724
480.0463
483.6204
484.6904
172.4485
168.3693
164.8425
303.9142
284.1728
161.0032
251.9544
193.1834
214.6678
170.8447
182.8177
175.0635
241.972
145.0657
197.1941
158.9859
191.4135
190.8607
318.6802
434.1996
202.3192
429.4938
243.835
548.3792
158.2924
203.7368
187.2205
228.7314
233.3684
279.3204
197.2293
194.4936
257.6552
245.0546
238.0987
77.4361
189.6447
195.4763
329.7416
198.3472
163.7444
193.1953
251.5921
140.0813
259.7144
255.4064
139.9103
265.3603
259.9666
236.4667
559.5028
182.9081
264.8745
265.8617
434.8558
432.0552
432.0607
429.7245
387.4844
413.1582
261.2107
494.2909
163.1151
501.0771
501.6375
494.514
518.801
510.2955
516.6217
509.9277
520.6071
517.7655
520.1102
429.404
435.6313
158.7805
214.3131
209.6392
158.4004
159.3074
196.9838
240.1442
378.3735
162.35
433.3372
471.2999
249.4957
482.2534
176.6939
173.3984
91.8703
86.3988
93.465
90.7736
356.4213
84.5692
195.3251
131.7131
190.389
203.0424
88.2312
81.7209
172.8409
374.1418
229.9771
235.3695
242.0144
238.1237
182.6496
228.3443
377.2064
89.3448
377.8839
378.8114
481.2038
387.6502
453.3828
449.7273
457.4969
453.6894
465.9257
464.2609
449.853
194.4427
199.8545
195.8581
201.8327
214.2561
210.31
205.5832