/*--------------------------------*- C++ -*----------------------------------*\\
| =========                 |                                                 |
| \\      /  F ield         | OpenFOAM: The Open Source CFD Toolbox           |
|  \\    /   O peration     | Version:  v1706                                 |
|   \\  /    A nd           | Web:      www.OpenFOAM.com                      |
|    \\/     M anipulation  |                                                 |
\\*---------------------------------------------------------------------------*/
FoamFile
{
    version     2.0;
    format      ascii;
    class       volVectorField;
    location    "4";
    object      U;
}
// * * * * * * * * * * * * * * * * * * * * * * * * * * * * * * * * * * * * * //

dimensions      [0 1 -1 0 0 0 0]


internalField   nonuniform List<vector>
7155
(
(0.0026253 -0.0021906 0.013678)
(-1.1737e-07 3.9287e-07 -7.898e-06)
(7.5542e-07 2.2261e-07 -7.5344e-06)
(-0.0060622 0.0010199 0.0071502)
(1.0794e-06 -7.1225e-07 6.7263e-06)
(-0.010556 0.0022253 0.0048744)
(3.8324e-06 -8.8697e-07 1.1682e-05)
(0.0040332 0.014611 0.012267)
(-0.012557 -0.0012044 0.0031214)
(-0.0054126 -0.0077595 -0.0032612)
(-0.0090609 -0.0040316 0.0028757)
(-0.0049196 0.0061047 0.008111)
(2.3248e-06 2.936e-06 2.7398e-05)
(-0.00018368 -0.019392 -0.0012232)
(-0.0027003 0.019138 -0.0013559)
(-6.9407e-07 1.2554e-06 -5.8497e-05)
(0.0029366 -0.0011476 0.0064602)
(-0.0072954 -0.00090073 -0.0081659)
(0.0016936 0.0020652 0.01079)
(-1.9513e-06 -7.4758e-07 -1.6691e-06)
(-0.0067129 0.0018808 0.001792)
(-0.0012445 -0.012944 0.00086242)
(-6.4271e-06 5.6303e-07 -2.3834e-05)
(-5.4805e-06 -2.6595e-06 3.0833e-05)
(0.0072553 -0.025693 0.030669)
(0.018558 -0.0093653 -0.0090529)
(0.012581 0.018964 -0.0098192)
(8.6992e-06 -7.5141e-06 4.4692e-05)
(-9.0421e-07 4.3569e-07 -1.3983e-06)
(-0.00027244 -0.009762 0.01832)
(-0.0040242 -0.0023331 0.019141)
(0.00037235 -0.0028584 0.018472)
(-0.0025882 0.0017398 0.012398)
(-0.0062475 -0.00010419 0.024196)
(-0.0067868 -0.0089673 0.062847)
(-0.0062505 -0.0086121 0.060191)
(-0.0044244 -0.010271 0.06483)
(-0.0032209 -0.0097257 0.065925)
(-0.0041559 -0.0098232 0.062638)
(0.00081874 0.0050652 0.014583)
(-0.010149 0.014164 0.0067358)
(-0.0067453 0.018272 0.0040531)
(0.0021401 -0.0077858 0.010861)
(-0.0037123 -0.0051016 0.034956)
(0.0071363 -0.0038198 0.016038)
(-0.018336 -0.0011222 0.044865)
(0.007468 -0.0081006 0.011981)
(-9.8661e-08 1.6425e-07 -2.6017e-06)
(-0.0023585 -0.0065083 0.019049)
(-5.3122e-07 1.4394e-07 -8.1689e-06)
(-0.011757 -0.0028396 0.055698)
(-0.01142 -0.01592 -0.032097)
(-1.3624e-06 2.9418e-06 3.4794e-05)
(0.00060387 -0.0049905 -0.017683)
(0.014401 -0.022562 -0.026419)
(0.00043753 0.00023847 0.026359)
(1.3319e-06 7.4082e-07 -5.7182e-06)
(-1.0085e-06 5.9175e-07 -1.7089e-05)
(-0.0081983 -0.013832 0.02967)
(0.0036233 -0.011909 0.06565)
(0.0021986 -0.011553 0.068151)
(0.00095931 -0.0096659 0.062172)
(-0.00030865 -0.010954 0.063713)
(0.0043904 -0.013972 0.067445)
(0.00048368 -0.010217 0.066606)
(0.0033678 -0.012556 0.065925)
(-0.00029211 -0.01041 0.06794)
(-0.00024992 -0.0095723 0.067966)
(-0.0010797 -0.008905 0.064736)
(0.004595 -0.01452 0.064569)
(2.9216e-07 -9.8321e-08 -8.6227e-07)
(0.0022152 -0.0034722 0.009677)
(-0.0024589 0.001211 0.027993)
(0.0042068 -0.0010535 0.024976)
(0.0028437 -0.0088181 0.017933)
(-0.0036502 0.0053601 0.0088922)
(3.9405e-08 -6.9181e-08 -7.7496e-07)
(-0.005001 0.024929 0.0020666)
(0.026345 0.0043615 -0.013514)
(0.029607 0.0081572 0.0058373)
(-0.003137 0.010551 -0.0080545)
(0.0025778 -0.00046782 0.0070178)
(-0.009518 0.011881 0.0012521)
(0.025903 -0.0026678 0.0095059)
(2.1154e-07 2.6922e-06 2.6038e-05)
(-0.0034595 0.016268 -0.0058398)
(-1.7698e-06 -1.6381e-05 1.2301e-05)
(0.0090013 -0.0020435 0.0059818)
(-0.0024812 -0.023776 0.0024515)
(0.0013149 -0.0068738 0.013358)
(-0.012765 -0.0062028 0.047783)
(-0.0086292 0.0025111 0.049908)
(-0.014093 -0.018683 0.05751)
(-0.0086918 -0.01561 0.049504)
(-0.0011742 -0.0028281 0.029258)
(0.00010177 -0.0091994 0.028961)
(0.00059381 -0.0054336 0.045068)
(-0.0047034 -0.009021 0.042761)
(-0.0022911 -0.0093118 0.04461)
(-0.002775 -0.008826 0.033932)
(-0.0036558 -0.0084229 0.042415)
(-0.00097168 -0.010045 0.049328)
(-7.5328e-08 1.9871e-06 -3.5563e-06)
(-0.0064096 -0.013584 0.0046772)
(-0.0061402 -0.010467 -0.0006877)
(0.017065 -0.0021025 0.0071915)
(-3.742e-06 2.3696e-06 5.1776e-05)
(-0.01259 0.00065629 0.021436)
(0.00053343 0.016552 0.0050217)
(-0.0052605 8.3001e-05 0.023019)
(-0.0027406 -0.0053617 0.026375)
(-0.0035907 -0.0070223 0.039853)
(0.012678 -0.006756 0.046638)
(0.015428 -0.0038244 0.033102)
(-0.0042575 -0.0086258 0.051088)
(-0.0015546 -0.0039739 0.054177)
(-0.0041201 0.0086193 -0.016273)
(-0.00060038 -0.0019829 -0.012587)
(-0.012007 -0.0063329 -0.003575)
(0.00060907 -0.0021874 -0.0048409)
(0.00066099 -0.0099154 0.066313)
(0.0025794 -0.012038 0.067604)
(0.0055911 -0.0076957 0.063873)
(0.0058125 -0.0078893 0.064619)
(0.001758 -0.010346 0.064741)
(0.0084087 -0.0038375 0.053719)
(0.010444 -0.0007364 0.049295)
(0.009451 -0.0063899 0.056638)
(0.015876 -0.0019278 0.057148)
(0.022518 0.0013475 0.052881)
(0.029505 0.0057504 0.051498)
(0.038531 0.0027808 0.049007)
(0.014741 0.00044286 0.04647)
(-7.4832e-06 1.2189e-05 -4.3649e-05)
(-0.0080377 -0.0018236 -0.0097893)
(0.0018638 -0.012037 0.0041253)
(-0.0056617 -0.0099331 0.0017363)
(0.0083632 0.0010923 0.019021)
(-0.0053758 0.0052043 0.0024491)
(7.8043e-06 1.7512e-06 8.182e-05)
(0.021236 -0.0033392 0.020765)
(-0.0099205 -0.010645 -0.01383)
(-0.0098104 0.0043311 -0.022776)
(-0.023133 0.003626 -0.016259)
(-0.028712 -0.0033408 -0.016171)
(-0.024064 0.0070123 -0.0089161)
(-4.0203e-07 7.5546e-07 -7.4405e-07)
(0.0038285 0.0008692 0.010941)
(-0.0045321 0.0013517 0.0039771)
(0.00045818 -0.00077063 0.019189)
(-0.0020414 -0.0080887 0.023748)
(-0.00094466 0.00042948 0.0058256)
(-8.5366e-07 6.3192e-08 -1.1652e-05)
(-0.0038493 -0.0052184 0.031542)
(-0.0049776 -0.0054688 0.032673)
(-1.421e-06 1.0213e-06 -4.7225e-05)
(-0.0062509 0.001854 0.017083)
(-0.0043714 -0.0031078 0.024615)
(-0.0038007 -0.0026352 0.023958)
(-0.0029203 -0.0086571 0.040804)
(-0.0036013 -0.0063253 0.037845)
(-0.0039829 -0.0067758 0.041803)
(-0.0016243 -0.00746 0.033305)
(-0.0040942 -0.0020074 0.011837)
(0.0031603 -0.0023594 0.017627)
(5.733e-05 -3.3411e-05 0.00018066)
(-0.010213 0.005216 -0.0437)
(0.01658 0.0064708 0.0068891)
(0.011081 -0.0025579 0.0037222)
(0.005138 -0.0050544 0.0024252)
(1.3816e-06 -4.2029e-06 3.9271e-05)
(4.1716e-06 -1.7038e-06 2.4754e-05)
(0.0059163 0.010522 0.006135)
(0.00092841 0.012345 0.0063908)
(2.9379e-06 -5.5959e-06 5.2153e-05)
(1.0977e-06 -4.488e-06 3.5179e-05)
(0.012353 -0.0010496 -0.025995)
(0.0031536 -0.0037316 -0.031401)
(0.011265 -0.0038338 -0.015853)
(0.010243 -0.0091077 -0.018148)
(0.001786 0.0032412 -0.018466)
(0.0036992 0.0077584 -0.010647)
(0.006962 -0.002801 -0.011413)
(0.012256 -0.0025403 -0.010297)
(-0.0063444 0.011206 -0.0027044)
(5.2342e-06 1.1239e-06 2.8054e-05)
(-0.021965 -0.0088161 0.0042496)
(-0.010228 -0.0026834 0.018925)
(0.00087904 -0.0018876 0.027754)
(-0.0077974 -0.004839 0.017916)
(-0.0076761 -0.0063122 0.019007)
(-0.00011111 -0.0044801 0.014105)
(-0.00038717 -0.0082793 0.018898)
(0.00038835 -0.0072915 0.010527)
(-1.2962e-07 3.6123e-07 -1.2797e-05)
(0.00097765 -2.0122e-05 0.0066438)
(-1.0841e-07 -1.499e-07 -2.0075e-05)
(-0.00085481 0.0023522 0.0071769)
(3.3328e-07 -8.2835e-07 -4.5269e-07)
(0.0015584 -0.0013911 0.0030431)
(-1.6856e-06 9.4042e-07 4.3691e-07)
(0.0016104 -0.00010717 0.010377)
(-0.00037536 -0.00049795 0.012969)
(0.00012667 -0.0042502 0.017773)
(-0.0185 -0.014473 -0.023955)
(7.125e-06 4.339e-06 3.5424e-05)
(-0.012838 -0.019846 -0.0019348)
(-0.0023677 -0.01188 0.067061)
(-0.00151 -0.0090654 0.065173)
(-0.0025019 -0.012003 0.064644)
(-0.00098302 -0.0099541 0.063741)
(-0.0043631 -0.0081353 0.067081)
(-0.0025453 -0.010876 0.063741)
(-0.00023929 -0.008642 0.063824)
(0.0038164 -0.00066755 0.017629)
(8.7395e-07 1.9459e-07 -1.7775e-05)
(-0.007925 -0.0045268 0.013885)
(0.004544 0.0038434 0.016069)
(-0.0012621 -0.010373 0.06629)
(-0.000549 -0.010081 0.065328)
(-0.0022754 -0.0099058 0.06265)
(-0.0023864 -0.010547 0.061328)
(-0.0036387 -0.0085749 0.059679)
(-0.0026419 -0.0087345 0.063261)
(-0.0040883 -0.010758 0.064965)
(-0.0048495 -0.012029 0.064548)
(-0.0019574 -0.011153 0.060843)
(1.0556e-07 -2.6295e-07 -1.1134e-06)
(0.00073899 -0.0029473 0.0099316)
(0.00039995 -0.0022511 0.016671)
(0.0033038 -0.00095257 0.0088016)
(0.0010484 -0.0080157 0.014092)
(-0.00034681 -0.0074459 0.020141)
(-0.0030886 -0.0010326 0.0044738)
(1.1469e-08 7.7359e-08 -1.5845e-06)
(-0.0019484 -0.0057728 0.045594)
(-0.0026761 -0.0073396 0.046936)
(-0.0014672 -0.0078548 0.043201)
(-0.00086032 -0.0075195 0.044071)
(-0.0019265 -0.0039668 0.051587)
(0.00059191 -0.0063367 0.055181)
(0.00056273 -0.0054501 0.054866)
(-0.00057843 -0.005998 0.050605)
(-0.046146 0.007739 -0.00071661)
(-0.060725 -0.012686 -0.017196)
(-0.076248 0.0098046 0.01347)
(-0.068651 0.0015959 -0.024771)
(-0.044291 -0.00042298 -0.0072791)
(-0.041116 -0.011418 -0.038764)
(-0.031697 -0.016808 0.0032782)
(-0.010464 -0.00057097 0.02601)
(1.5722e-05 -4.3112e-06 -0.00019213)
(-0.015061 0.0068647 0.021704)
(-0.019524 -0.00015914 0.018122)
(-0.002156 -0.0051964 0.02535)
(-0.0020387 -0.0058263 0.029195)
(-0.0027723 -0.0063691 0.035155)
(-0.0031204 -0.0046497 0.031782)
(-0.0035338 -0.0034482 0.024946)
(-0.0022829 -0.0057992 0.024482)
(-0.0029518 -0.0030604 0.012752)
(-0.0017255 -0.0030082 0.0098557)
(0.0011795 -0.0013972 0.050345)
(-0.0016701 -0.0018806 0.04256)
(0.0035783 0.0027913 0.039081)
(0.0071036 4.5342e-05 0.030865)
(-0.0057762 -0.00045475 0.0079015)
(-0.0043787 -0.0081537 0.007831)
(0.00035397 0.0099778 0.0017454)
(-0.01491 -0.017907 0.0062772)
(-0.01133 0.0066782 0.0058413)
(-1.1716e-05 1.4489e-05 -3.8811e-05)
(-0.0025599 0.0032766 0.018064)
(0.005597 0.0020039 0.0063906)
(-0.0027397 -0.00049508 0.0048702)
(-2.6048e-07 3.2176e-07 -1.7842e-06)
(0.00065845 -0.006245 0.0081324)
(-0.0011001 -0.0055304 0.012228)
(-0.0010565 -0.0031789 0.029497)
(0.00066561 -0.0050031 0.023225)
(-0.0013449 -0.0042714 0.035228)
(-0.00090114 -0.0067079 0.030558)
(-0.074742 0.02262 -0.04206)
(-0.069205 0.018963 -0.068035)
(-0.070369 0.0060787 -0.048112)
(-0.080269 0.011073 -0.035792)
(-0.0039901 -0.0059769 0.031308)
(-0.00073649 -0.00669 0.039736)
(-0.0050887 -0.0068641 0.043966)
(-0.0034748 -0.0076159 0.044125)
(-0.07237 0.0065425 0.010533)
(-0.073137 0.0077029 0.028073)
(-0.070637 -0.0017955 0.018057)
(-0.075043 -0.0054905 0.022483)
(-0.065537 -0.010075 0.047265)
(-0.076327 -0.0004145 0.035873)
(-0.077107 -0.0041828 0.019263)
(8.6055e-06 1.8172e-06 -2.8844e-05)
(-0.011227 0.0065062 0.025196)
(-0.020428 -4.3179e-05 0.010428)
(-0.0057335 0.0044997 0.016006)
(0.0073836 -0.00086935 0.0075271)
(-1.1818e-06 1.7354e-06 -1.0661e-05)
(0.00014643 0.0017521 0.0028292)
(0.0042333 0.0045233 0.010749)
(1.0606e-05 -1.9517e-06 4.5568e-05)
(0.0035417 0.0031899 0.0002078)
(-0.0035562 -0.0038203 -0.0019114)
(0.0026772 -0.015466 0.0088266)
(-0.00058085 0.0061705 0.011206)
(-0.0035096 0.014564 0.00055689)
(-0.0033401 0.012989 -0.0048519)
(-0.011356 -0.0043836 0.003582)
(0.0055289 -0.010294 -0.015544)
(-0.0096068 -0.0021332 -0.0027228)
(-0.024506 -0.0015887 -0.0055887)
(0.010259 7.3788e-05 -0.0046744)
(0.0077 -0.002578 -0.0013517)
(0.012131 0.013378 0.0020506)
(0.0066926 0.012507 0.0099489)
(0.0050106 0.012707 0.0016895)
(-0.0051908 -0.0003533 -0.0078834)
(0.0033949 0.015984 0.00046063)
(0.0071503 -0.018145 -0.018454)
(0.012798 -0.0033244 -0.018185)
(-0.021033 -0.0031098 -0.041929)
(-0.028732 0.0019775 -0.026082)
(-0.042281 0.0074251 -0.050379)
(-0.034159 -0.008534 -0.031695)
(-0.0014165 0.0011557 -0.03151)
(0.018471 -0.017665 0.0034211)
(-0.0075766 -0.0060467 0.0028424)
(-5.1002e-06 -9.9538e-06 -9.2539e-06)
(-0.014687 0.028869 0.00093324)
(-0.016442 0.012198 -0.0028056)
(-4.3743e-07 -2.3956e-06 9.7299e-07)
(1.7869e-06 4.0226e-07 4.1495e-06)
(0.0052424 0.0039996 0.0079763)
(-0.0038386 -0.0032138 0.0043228)
(-0.027548 0.012898 -0.033011)
(-0.027578 0.014658 -0.029783)
(-0.015849 0.0066429 -0.013376)
(-0.015721 0.010174 -0.026045)
(-0.017205 0.028637 -0.0061439)
(0.00080514 -0.0014749 -0.0093996)
(0.0049001 0.024036 -0.018495)
(-0.015138 0.018489 -0.044721)
(-0.072655 0.0070004 -0.015476)
(-0.067717 0.010222 0.0026832)
(-0.075543 -0.0022667 -0.017807)
(-0.076697 0.013212 -0.0020906)
(-0.059494 -0.0027677 -0.01225)
(-0.069149 -0.00080447 -0.026728)
(-0.072461 -0.0054262 0.0052153)
(-7.3393e-05 -0.0018184 0.058036)
(-0.00097048 -0.0062213 0.05454)
(0.00034533 -0.0071057 0.05974)
(-0.0020493 -0.011167 0.060785)
(-0.022189 0.012673 0.012048)
(-0.0261 0.0017377 0.0029033)
(-0.011946 -0.018609 0.0019218)
(-0.025817 -0.0072499 -0.0040014)
(-0.01904 -0.005389 0.017576)
(0.0023037 -0.0016408 0.0087596)
(-1.0699e-07 9.4381e-08 -4.3006e-06)
(-0.00070116 0.00024755 0.0074311)
(0.0010045 0.0030865 0.019229)
(-0.013212 -0.0021965 0.023137)
(-0.0058692 -0.0038665 0.020907)
(-0.028887 -0.0049798 0.011326)
(-0.02845 -0.0072005 0.029218)
(0.0020173 -0.0022969 0.012279)
(-0.00031439 -0.0030641 0.018567)
(3.4469e-07 5.8065e-07 -6.8913e-06)
(-0.0011306 -0.0051619 0.018261)
(0.00051828 -0.0071005 0.051084)
(-0.00020843 -0.0071128 0.049715)
(-0.0013767 -0.0074957 0.047437)
(-0.00013554 -0.0084772 0.040602)
(0.00012127 -0.0092572 0.039342)
(-0.0017725 -0.0052516 0.037967)
(-0.0019201 -0.0068547 0.046215)
(0.00099651 -0.0081575 0.041142)
(0.0016659 -0.0099573 0.041023)
(0.00086438 0.0019974 0.01822)
(6.5714e-06 -1.0288e-05 -4.3938e-05)
(0.0053793 0.0010342 0.018938)
(0.0022749 -0.0045309 0.022789)
(0.0101 0.0041271 0.011169)
(0.0086543 0.00015243 0.020635)
(0.0029907 0.0021962 0.0035922)
(-1.5919e-06 -7.4962e-07 -6.9597e-05)
(0.0025468 -0.0059729 0.047367)
(-0.0019797 -0.00766 0.042007)
(-0.0017927 -0.0068482 0.041794)
(-5.9029e-05 -0.005936 0.045763)
(0.00078293 -0.0057224 0.049225)
(-3.7261e-06 2.1205e-06 -9.8159e-06)
(-0.01193 0.00215 0.011882)
(0.0032313 -0.008262 0.016778)
(-0.0031857 -0.0020704 0.0093581)
(-2.0431e-05 -0.0058701 0.063332)
(-0.002803 -0.0047918 0.066545)
(-0.0042261 -0.0048812 0.063004)
(-0.0037525 -0.006028 0.053943)
(-0.005793 -0.0070347 0.060467)
(-0.0049087 -0.0081743 0.066922)
(-0.0041517 -0.0076348 0.06598)
(-0.0045375 -0.0092148 0.067933)
(0.0017428 -0.0060792 0.059444)
(-0.0010328 -0.0067635 0.06001)
(-0.0011386 -0.0061991 0.062536)
(0.00010851 -0.0082473 0.064218)
(-0.0033747 -0.0096783 0.058516)
(-0.0027088 -0.010836 0.060342)
(5.4208e-06 -0.0060072 0.060162)
(-0.00194 -0.0089016 0.063688)
(-0.0022133 -0.0078757 0.064278)
(-0.0013071 -0.0074825 0.053556)
(-0.0009109 -0.0081726 0.052152)
(-0.0013839 -0.010555 0.055664)
(-0.0016697 -0.0080135 0.044568)
(-0.0015388 -0.0068607 0.05294)
(-0.0014728 -0.008132 0.046564)
(-0.0027333 -0.009242 0.060044)
(-0.0027361 -0.0070494 0.061422)
(-0.0032602 -0.0071373 0.054568)
(-0.0015091 -0.0076678 0.053083)
(-0.0039722 -0.0078573 0.054555)
(-0.0026126 -0.0086004 0.054387)
(-0.0032602 -0.0066743 0.049208)
(-0.0040092 -0.0075869 0.049889)
(-0.002717 -0.0057985 0.06221)
(-0.0047957 -0.0053994 0.062105)
(-0.0005958 -0.0063871 0.061656)
(-0.0014414 -0.0095278 0.058011)
(2.3636e-06 4.4359e-06 -6.5781e-06)
(-0.010059 0.0038016 0.015705)
(-0.011444 -0.012419 0.01484)
(-0.010404 -0.0034476 0.011124)
(0.010537 -0.0058873 0.046122)
(0.0068654 -0.00090212 0.043625)
(0.0041186 0.00012242 0.019663)
(0.00313 -0.0054393 0.023689)
(0.0014091 -0.0034507 0.006222)
(-6.2178e-07 -2.8759e-07 -1.6438e-06)
(0.00054169 -0.0019096 0.0074321)
(0.0012421 -0.00059452 0.037749)
(-0.00038763 -0.0034019 0.039701)
(0.0017155 -0.0029225 0.029044)
(-0.00021411 -0.0058481 0.034552)
(0.0091705 -0.0092955 0.0057974)
(0.015818 -0.0044334 0.006273)
(0.0060051 -0.014338 0.0031154)
(0.0025248 -0.0025329 -0.0019586)
(0.0071967 0.010434 -0.00063697)
(-0.0024196 -0.0012646 0.0082953)
(0.0026243 -0.0041055 0.057111)
(0.0086105 -0.0026802 0.043252)
(0.006191 -0.0034955 0.044385)
(0.0037802 -0.00082212 0.049152)
(-0.00075281 -0.0024213 0.057117)
(-0.000687 -0.0057927 1.3853e-05)
(-2.6285e-06 -5.1461e-06 1.033e-05)
(-0.010416 -0.0060118 -0.0029092)
(-0.015539 0.007271 0.00018377)
(5.5752e-06 -5.868e-06 4.1665e-05)
(0.0014527 0.0040931 -0.0032212)
(3.9672e-06 7.5215e-07 -4.0473e-06)
(-0.00073879 0.00080372 0.0056318)
(-0.009457 0.010761 0.0078964)
(-0.0017766 -0.0070017 0.055534)
(-0.0010678 -0.0088844 0.051352)
(0.00026618 -0.0077078 0.050545)
(-0.0020747 -0.010381 0.055012)
(0.0014226 -0.0048563 0.058259)
(0.00089944 -0.0052217 0.060457)
(-0.00055637 -0.0033084 0.059175)
(-0.0004212 -0.0022933 0.058117)
(0.002388 -0.0011963 0.059315)
(0.0019058 -0.0031344 0.060732)
(-0.00057323 -0.0048812 0.059524)
(0.0033108 0.00034207 0.058195)
(0.0062786 -0.0012927 0.052986)
(0.0021544 -0.0011643 0.057252)
(-0.00055368 -0.0075921 0.06236)
(-6.2772e-08 5.2347e-08 1.2011e-06)
(0.00012426 -0.00073367 0.00039285)
(0.0012218 -0.0021158 0.0037793)
(-1.9594e-07 4.9713e-07 -8.8137e-06)
(0.0011298 -8.2834e-05 0.0024624)
(-1.8642e-07 4.8146e-08 -8.9882e-08)
(0.0049542 -0.001104 0.0089969)
(0.0012616 -0.0019668 0.017179)
(0.001157 0.0061976 -0.011465)
(0.0023891 0.0030212 -0.0012136)
(-0.00097889 0.014145 -0.0026154)
(-0.0071711 -0.010352 -0.0026468)
(-1.1878e-07 5.5251e-09 -5.9644e-06)
(-0.0010694 -0.0084127 0.014815)
(0.0022994 -0.00076053 0.024798)
(-0.0095023 -0.0071589 0.021034)
(-0.0035559 -0.002289 0.033303)
(0.001673 -0.003456 0.032878)
(0.00014492 0.01257 0.014885)
(0.00036012 -0.0095343 0.055689)
(-0.0029752 -0.0075968 0.055394)
(0.0015664 -0.0089555 0.063684)
(-0.0055181 -0.0071117 0.061483)
(-0.0078024 -0.0066341 0.056346)
(-0.0049712 -0.0082406 0.059745)
(-0.004191 -0.0091135 0.061467)
(-0.0062725 -0.0081676 0.058836)
(-0.015903 -0.0077616 0.07039)
(-0.018443 -0.010906 0.070296)
(-0.0083089 0.0022398 0.07353)
(-0.020187 -0.00069166 0.058383)
(0.000818 -0.012672 0.059224)
(0.010195 -0.0032393 0.058684)
(0.0025504 -0.0046267 0.054311)
(-0.0080212 -0.0054669 0.058617)
(0.010863 -0.0075916 0.040353)
(0.0044088 -0.0051613 0.046831)
(0.0006071 -2.7789e-05 0.026167)
(-0.01258 -0.012238 0.043954)
(-0.011829 0.0042539 -0.0096794)
(-0.0013168 0.0064651 0.015553)
(6.6634e-06 -4.0527e-06 5.9667e-06)
(-0.043656 -0.027627 -0.039954)
(0.00018477 4.5322e-05 0.00062947)
(7.8377e-05 8.0964e-05 0.00036711)
(-0.0062651 -0.028083 -0.039008)
(0.022488 -0.05367 -0.02929)
(7.2916e-06 -2.574e-06 -5.1682e-05)
(-0.0039499 0.0056129 0.028884)
(0.00050687 0.0032221 0.045008)
(0.0035991 0.0035226 0.04446)
(-0.0070074 -0.0019129 0.023746)
(0.042592 -0.00089508 0.035135)
(0.022471 0.012119 0.038329)
(0.023295 0.0093285 0.021059)
(0.055189 0.0075712 0.033291)
(0.0013905 -0.0073578 0.029968)
(0.00076072 -0.0090453 0.035356)
(-0.0023544 -0.0064708 0.033553)
(-0.0013301 -0.0076233 0.036814)
(-0.00038874 -0.0075296 0.027349)
(0.00082337 -0.0080656 0.02697)
(0.003895 0.02189 -0.0034955)
(-0.0027269 0.010283 -0.0036363)
(-0.025863 -0.0043385 -0.0048904)
(0.00021085 -0.0051605 0.05851)
(0.0011986 -0.0045463 0.052417)
(0.0028163 -0.0021758 0.04828)
(0.0052706 -0.0026799 0.050128)
(0.0012658 0.00046981 0.037324)
(0.0041311 0.0047297 0.041913)
(0.00088253 -0.0048372 0.057414)
(6.6407e-08 5.4506e-08 -3.3236e-07)
(-6.9165e-08 -2.086e-07 -4.9147e-07)
(0.0073871 0.0016413 0.0032609)
(0.0061744 0.001752 0.0068731)
(-3.8385e-06 3.4003e-07 -1.249e-05)
(0.0073568 -0.0012117 0.0074989)
(-0.0068762 -0.0080654 0.013288)
(-6.8657e-06 -1.2001e-05 -0.00018819)
(1.7486e-06 3.1953e-07 7.6906e-05)
(-0.0086907 -0.010408 0.011078)
(-0.0051708 -0.0098396 0.038252)
(-0.0031416 -0.007817 0.045814)
(-0.0026458 -0.0079352 0.042015)
(-0.0010375 -0.0077908 0.02897)
(-0.0062852 -0.011216 0.017008)
(-0.0075965 -0.024973 0.0020801)
(-0.0050553 -0.01846 0.042876)
(0.0017863 -0.015374 0.046855)
(-0.0026367 -0.021647 0.047076)
(-0.0047764 -0.011915 0.051609)
(-0.0053578 -0.012063 0.048497)
(0.0080024 -0.015122 0.053359)
(0.0024531 -0.019192 0.033417)
(-0.0081533 -0.020157 0.040865)
(0.0021989 -0.015045 0.062755)
(-0.00065842 -0.01103 0.061028)
(0.0028625 -0.015665 0.055457)
(0.0032884 -0.012386 0.058402)
(-0.0014108 -0.0097584 0.058869)
(-0.0023812 -0.0084601 0.054644)
(-0.0014324 -0.009439 0.057811)
(-0.0023912 -0.0068384 0.055229)
(-0.0074484 -0.019467 0.053224)
(-0.00049157 -0.0091448 0.053188)
(0.0015151 -0.01123 0.053474)
(0.0010034 -0.0096803 0.046449)
(0.0012553 -0.0088402 0.045113)
(-0.00038339 -0.0092146 0.050952)
(-0.0012861 -0.0077337 0.049169)
(0.00051111 -0.010542 0.061984)
(0.00031922 -0.0074116 0.0611)
(-0.0013951 -0.0091194 0.064659)
(-0.0020696 -0.0083487 0.068043)
(-0.0030017 -0.0099579 0.066993)
(-0.0054471 -0.0065223 0.044506)
(-0.0029645 -0.0090361 0.049997)
(-0.0047518 -0.011766 0.051313)
(-0.0037833 -0.0087414 0.052687)
(-0.017392 -0.015596 0.053174)
(-0.014298 -0.019034 0.063352)
(0.00217 -0.0094287 0.04581)
(-9.2897e-05 -0.0085322 0.045267)
(3.0484e-05 2.453e-05 5.825e-05)
(0.0024881 -0.014431 0.062682)
(-0.0016058 -0.0051126 0.041324)
(-0.0038163 -0.0073436 0.048123)
(-0.0025131 -0.0080214 0.06113)
(-0.0022724 -0.0072962 0.055204)
(-0.0012083 -0.0077189 0.051602)
(-0.0019013 -0.0081289 0.056538)
(-0.0023643 -0.0064658 0.040439)
(-0.0021833 -0.0070172 0.043951)
(-0.00087129 -0.0072234 0.0492)
(-0.0020523 -0.0082207 0.051498)
(-0.037098 0.0058204 0.0024428)
(-0.040437 -0.00072832 -0.012515)
(-0.037441 0.0026828 0.0083321)
(-0.033601 -0.0018387 -0.0029923)
(7.2769e-06 -6.1206e-06 5.253e-05)
(-1.7995e-06 -1.2827e-05 -7.264e-06)
(-0.0041936 -0.010336 0.069876)
(-0.0015386 -0.01028 0.068171)
(-0.003138 -0.010397 0.06775)
(-0.0057707 -0.0087252 0.053241)
(-0.0091246 -0.0038061 0.050759)
(-0.0074792 -0.0024869 0.049696)
(-0.0049508 -0.008007 0.060057)
(-0.0044385 -0.010576 0.058812)
(-0.0010923 -0.0033479 0.060962)
(-0.00133 -0.0036158 0.056438)
(2.6574e-05 0.00063062 0.0052402)
(-0.0085891 -0.00046776 -0.010783)
(-0.002712 -0.0085701 -0.01882)
(-0.014152 0.0055037 -0.015456)
(0.0020704 -0.0069463 0.06192)
(0.0036551 -0.011762 0.064592)
(0.013034 -0.00081282 0.056325)
(0.0094891 -0.0078407 0.060826)
(-0.0050841 -0.016476 0.045255)
(-0.010775 -0.022204 0.059743)
(-0.0021223 -0.017279 0.068111)
(-0.0088838 -0.01597 0.066534)
(-0.0047634 -0.014943 0.065028)
(-0.01014 -0.013445 0.063896)
(-0.0067604 -0.0013625 0.049953)
(-0.004777 -0.00047912 0.050843)
(-0.001604 -0.0012535 0.058545)
(0.0077789 -0.0057732 0.060672)
(-0.025575 0.00098736 -0.0096378)
(-0.0029412 -0.0065791 -0.022667)
(-0.032022 -0.0021116 -0.00096706)
(-0.0018056 -0.017697 0.0022385)
(-0.0045905 -0.010964 0.058344)
(-0.0070046 -0.011145 0.061283)
(-0.0050659 -0.011988 0.056389)
(-0.004456 -0.0043654 0.034345)
(-0.0046896 -0.00042965 0.032328)
(-0.0048763 -0.0010882 0.043063)
(-0.0021958 0.0010088 0.04341)
(-0.0065135 -0.003843 0.039087)
(0.00049308 -0.0099992 0.045273)
(-0.001421 -0.0092728 0.045913)
(-0.0071618 -0.011962 0.062672)
(-0.0064428 -0.011502 0.061658)
(-0.0058022 -0.011206 0.059048)
(-0.0066916 -0.015692 0.064439)
(-0.002022 -0.0021986 0.0093101)
(-0.011395 -0.011874 0.024343)
(-0.0012291 -0.012901 0.044722)
(-0.027637 -0.016419 0.048502)
(-0.0258 -0.0089289 0.045782)
(-0.0020691 -0.0012567 0.038796)
(-0.0012178 -0.0043636 0.044057)
(-0.0062284 -0.00085853 0.033595)
(-0.0055794 -0.00047455 0.042305)
(-0.0063019 -0.0012561 0.033071)
(-0.0057806 -0.0058614 0.042672)
(-0.0027846 -0.0037063 0.046832)
(-0.0035232 -0.015557 0.059872)
(-0.0035078 -0.01082 0.060596)
(-0.0050304 -0.014596 0.052276)
(-0.0037098 -0.0096082 0.053571)
(-0.0077652 -0.0076699 0.042019)
(-0.0065349 -0.010384 0.045724)
(0.00065852 -0.0094269 -0.021944)
(-0.0034257 -0.020473 -0.014792)
(0.0017288 -0.0071166 -0.025969)
(0.0040977 -0.016386 -0.021992)
(-0.0012519 0.00070702 -0.008417)
(-0.0024739 -0.0041484 -0.0012224)
(0.0018067 -0.0099604 0.063731)
(0.0043506 -0.0098572 0.065635)
(-0.0022437 -0.011032 0.067832)
(6.0252e-07 -3.5055e-07 -1.1202e-05)
(-0.0030373 -0.0023745 0.0086862)
(0.0030598 -0.0052594 0.013292)
(0.0059565 -0.0084243 0.012659)
(0.013463 0.00082046 -0.0037211)
(0.0049569 -0.010852 -0.015748)
(-0.014532 -0.014854 -0.0042565)
(-0.007691 -0.01472 -0.00439)
(-0.02019 -0.008285 -0.0020128)
(0.0044285 0.0022992 -0.0067445)
(0.01165 -0.018338 -0.0034706)
(0.0032182 -0.0067113 0.00020223)
(0.0052612 -0.008494 -0.0018389)
(-0.0046364 -0.012326 0.056715)
(0.0023753 0.0011997 0.025732)
(0.00037541 -0.0068032 0.032148)
(0.00099158 -0.0087193 0.032389)
(0.0014304 -0.0054007 0.041579)
(0.00031196 -0.0070383 0.053499)
(-0.00037246 -0.0056501 0.044976)
(0.0002741 -0.006301 0.026869)
(0.00093208 -0.0081527 0.029259)
(-0.00028385 -0.0081812 0.029256)
(-0.0042706 -0.0087696 0.056936)
(-0.0015597 -0.0083694 0.055624)
(-0.0033038 -0.0043649 0.055847)
(-0.0033237 -0.0068687 0.058431)
(-0.0029037 -0.0089591 0.058929)
(-0.0035058 -0.0068214 0.058659)
(-0.00029794 -0.011654 0.070029)
(-0.00046995 -0.0095914 0.069349)
(-0.00088182 -0.011365 0.070501)
(-0.001428 -0.011787 0.069639)
(-0.012602 -0.0056546 0.03158)
(-0.0089043 -0.003424 0.039102)
(-0.008597 -0.0057331 0.040919)
(-0.008392 -0.0031872 0.040835)
(-0.005534 -0.0030112 0.052468)
(-0.005293 -0.0049439 0.054627)
(-0.0060761 -0.0041166 0.045718)
(-0.00014645 -0.0084397 0.070184)
(0.00077931 -0.0089093 0.072549)
(0.0015977 -0.0092092 0.071271)
(-0.00022875 -0.0099098 0.070664)
(0.0016122 -0.0044756 0.06123)
(0.0046028 -0.0043689 0.061998)
(0.0034247 -0.0064593 0.06329)
(0.0027162 -0.0062132 0.065918)
(-0.0044865 -0.0073838 0.04869)
(-0.003716 -0.0061768 0.046816)
(-0.0021722 -0.0057548 0.051432)
(-0.0037134 -0.0066879 0.050901)
(-0.0028353 -0.0079156 0.055482)
(0.00080354 -0.0068678 0.056042)
(-0.0033856 -0.0074879 0.05803)
(0.002604 0.0011301 0.041688)
(-0.0015988 0.00038155 0.039732)
(0.0001662 -0.00047993 0.038171)
(-0.0011237 -0.00078566 0.042786)
(-0.0014039 -0.0074458 0.047751)
(-0.0033568 -0.0078605 0.054666)
(-0.011188 -0.010184 -0.011795)
(-0.016556 -0.014953 -0.0015463)
(-0.0091931 -0.0074959 -0.00089572)
(0.00074333 -0.0053306 0.025648)
(-0.00039533 -0.0068135 0.029874)
(-0.0027299 -0.004838 0.030816)
(-0.0014283 -0.0055546 0.032621)
(-0.0021952 -0.0059928 0.037126)
(-0.0013251 -0.0069289 0.039338)
(-0.00076587 -0.002377 0.029351)
(0.00041556 -0.003259 0.032197)
(0.0026025 -0.0064639 0.03574)
(-0.0024286 -0.0058504 0.02669)
(-0.0039062 -0.0080177 0.037564)
(-0.0010269 -0.0079489 0.035955)
(0.0051814 -0.0021649 -0.025823)
(0.0017386 -0.0094834 -0.022277)
(0.0081755 0.00027409 -0.018561)
(-0.00032114 -0.0073592 0.047959)
(-0.0012874 -0.0061505 0.048539)
(-0.0018065 -0.0086375 0.054426)
(-0.021577 0.0044237 -0.0054888)
(-0.031687 0.010972 -0.025506)
(-0.031944 0.014264 -0.0071898)
(-0.002838 -0.0038804 0.041851)
(-0.0023827 -0.00042985 0.036534)
(-0.0011972 -0.006288 0.049973)
(-0.0018027 0.0013126 0.022551)
(-0.0033384 0.0059093 0.0349)
(0.00034965 -0.0022544 0.038789)
(0.0010993 -0.0041307 0.046414)
(-0.0071638 -0.0038481 0.058401)
(-0.0079383 -0.0045454 0.058333)
(-0.0091349 -0.0059816 0.053777)
(-0.0048676 -0.00359 0.050937)
(-0.0017532 -0.0099967 0.069045)
(-0.0027011 -0.009405 0.069141)
(-0.0011648 -0.0099282 0.069905)
(-0.0011098 -0.010957 0.070364)
(-0.0042206 -0.010227 0.064299)
(-0.0056833 -0.010959 0.060526)
(-0.0067166 -0.010775 0.062903)
(-0.0033776 -0.010255 0.060879)
(0.00028561 -0.0063273 0.051096)
(-0.0017782 -0.005788 0.04122)
(-0.002306 -0.0043128 0.049208)
(-1.5573e-05 -0.0044069 0.047893)
(0.0011771 -0.0056375 0.052808)
(0.00012262 -0.0043146 0.060079)
(0.0024546 -0.0057036 0.062231)
(-0.034827 0.013576 -0.030782)
(-0.036405 0.010552 -0.024256)
(-0.029389 0.0026981 -0.034729)
(-0.017049 0.0038876 -0.026797)
(-0.0053857 -0.0074268 0.055475)
(-0.0048381 -0.0086879 0.056628)
(-0.0039585 -0.0073868 0.050421)
(-0.0010895 -0.0069655 0.077136)
(0.0067439 -0.010288 0.063839)
(-0.0012359 -0.010158 0.068803)
(0.0054682 -0.011946 0.071844)
(0.0035244 -0.010562 0.065602)
(-0.070201 0.010735 -0.034832)
(-0.059795 0.0075916 -0.03371)
(-0.085618 0.013663 -0.033112)
(-0.062032 0.0079515 -0.040939)
(0.0024273 -0.0104 0.030752)
(0.00035616 -0.008296 0.04381)
(-0.0025045 -0.010829 0.032732)
(0.003863 -0.011241 0.04264)
(-0.0073328 -0.0044532 0.035638)
(-0.002796 -0.006123 0.042461)
(-0.0028794 -0.0068285 0.053245)
(-0.0070144 -0.0037844 0.052157)
(-0.0064957 -0.0051576 0.048151)
(-0.0049733 -0.0038786 0.042947)
(-0.0017312 -0.0022541 0.039072)
(-0.0023544 -0.0071162 0.032611)
(-0.00032796 -0.0013966 0.053631)
(0.00023011 -0.0053704 0.046246)
(0.00088153 -0.0050801 0.052745)
(0.0012645 -0.0037381 0.046751)
(0.00059185 -0.0025954 0.033032)
(0.0029763 -0.0027691 0.026519)
(0.0020185 -0.0010644 0.044551)
(0.0040665 -0.0028084 0.041965)
(0.0043293 -0.0021272 0.04802)
(0.0013268 -0.0069906 0.050126)
(0.00016216 -0.0058801 0.049664)
(-0.0064335 -0.008153 0.065415)
(-0.0058089 -0.01122 0.065023)
(-0.0069678 -0.010506 0.066631)
(-0.0072955 -0.010498 0.065309)
(-0.0041675 -0.010179 0.069502)
(-0.0052109 -0.0091082 0.069344)
(-0.0027187 -0.0092143 0.069904)
(-0.0042451 -0.0037996 0.038607)
(-0.004312 -0.0049227 0.036528)
(-0.00035118 -0.0080551 0.067171)
(-0.00031167 -0.0082006 0.066058)
(0.0034017 -0.003793 0.030667)
(0.002663 -0.0031635 0.0193)
(0.0017646 -0.0018575 0.03055)
(0.0024408 -0.00055201 0.023866)
(-0.049977 0.0043416 -0.020647)
(-0.054945 0.012431 -0.022134)
(-0.042239 0.011619 -0.033983)
(-0.0015938 -0.0064472 0.050774)
(-0.0043821 -0.008569 0.03038)
(-0.0081243 -0.0013084 0.022696)
(-0.0047112 -0.0013033 0.031941)
(-0.0067371 -0.0048449 0.03236)
(-0.0040216 -0.0089195 0.062117)
(-0.0017209 -0.0077423 0.063234)
(0.00066907 -0.0086225 0.067185)
(-0.0012338 -0.0084844 0.068585)
(-0.0027699 -0.0083952 0.067381)
(-0.0017277 -0.0088432 0.067112)
(-0.001798 -0.0076142 0.067283)
(-0.0019813 -0.0071282 0.061917)
(-0.0023562 -0.0077464 0.057162)
(-0.00099877 -0.0056669 0.059932)
(0.0019516 -0.0089011 0.056817)
(-0.0043272 -0.010891 0.060712)
(-0.0047845 -0.0091286 0.064715)
(-0.005123 -0.0092109 0.065157)
(-0.01229 -0.012281 0.035423)
(-0.005304 0.0046349 0.040786)
(-0.0086528 -0.0073471 0.045836)
(0.002775 0.0051401 -0.015465)