/*--------------------------------*- C++ -*----------------------------------*\\
| =========                 |                                                 |
| \\      /  F ield         | OpenFOAM: The Open Source CFD Toolbox           |
|  \\    /   O peration     | Version:  v1706                                 |
|   \\  /    A nd           | Web:      www.OpenFOAM.com                      |
|    \\/     M anipulation  |                                                 |
\\*---------------------------------------------------------------------------*/
FoamFile
{
    version     2.0;
    format      ascii;
    class       surfaceScalarField;
    location    "0.35";
    object      mdot_f;
}
// * * * * * * * * * * * * * * * * * * * * * * * * * * * * * * * * * * * * * //

dimensions      [1 0 -1 0 0 0 0]


internalField   nonuniform List<scalar>
560
(
-6.3383e-05
-0.13815
-9.6669e-05
-0.14126
-0.00058877
-0.14454
-0.00084564
-0.14662
-0.00086961
-0.14783
-0.00080893
-0.14859
-0.00067551
-0.14911
-0.0004834
-0.14947
-0.00025492
-0.14975
-0.14997
-0.00046375
-0.13768
-0.00064981
-0.14103
-0.00087926
-0.14427
-0.0010049
-0.14647
-0.00098107
-0.14783
-0.00087343
-0.14868
-0.00071225
-0.14925
-0.00049827
-0.14967
-0.00025357
-0.14998
-0.15022
-0.00071854
-0.13694
-0.0010022
-0.14066
-0.001145
-0.14406
-0.0012009
-0.14637
-0.0011252
-0.14784
-0.00097042
-0.14878
-0.00078103
-0.14943
-0.00053505
-0.14988
-0.00026295
-0.15022
-0.15048
-0.0009144
-0.13599
-0.0012906
-0.14022
-0.0014101
-0.14387
-0.0014153
-0.14632
-0.001311
-0.14791
-0.0011164
-0.14895
-0.00087491
-0.14965
-0.00060161
-0.15014
-0.00030069
-0.15051
-0.15077
-0.0011162
-0.13481
-0.0015896
-0.1397
-0.0017054
-0.14369
-0.0016822
-0.14628
-0.0015591
-0.14803
-0.0013191
-0.14914
-0.0010177
-0.14992
-0.00069868
-0.15048
-0.00034715
-0.15086
-0.15113
-0.001363
-0.1334
-0.0019444
-0.13907
-0.0020869
-0.14352
-0.0020664
-0.14627
-0.0018973
-0.14819
-0.0016129
-0.14943
-0.0012465
-0.15029
-0.00083821
-0.15088
-0.00041041
-0.15129
-0.15157
-0.0016327
-0.13173
-0.0024479
-0.1382
-0.0026837
-0.14327
-0.0026629
-0.14627
-0.0024117
-0.14843
-0.0020266
-0.14986
-0.0015423
-0.1508
-0.0010326
-0.15142
-0.00051158
-0.15183
-0.15209
-0.0019294
-0.12979
-0.0033717
-0.13678
-0.0037693
-0.1429
-0.00365
-0.14642
-0.0032033
-0.1489
-0.0025893
-0.1505
-0.0019122
-0.1515
-0.0012603
-0.15214
-0.00062011
-0.15252
-0.15274
-0.0029862
-0.12679
-0.0055798
-0.13428
-0.0058367
-0.1427
-0.0051904
-0.14715
-0.0042506
-0.14991
-0.0032665
-0.15155
-0.0023341
-0.15249
-0.0014908
-0.15302
-0.00072031
-0.15333
-0.1535
-0.0086912
-0.11814
-0.010466
-0.13262
-0.0091158
-0.14414
-0.0071618
-0.14918
-0.0053737
-0.15177
-0.0038951
-0.15312
-0.0026773
-0.15379
-0.0016712
-0.1541
-0.00080409
-0.15426
-0.15434
0.020202
-0.13841
0.024177
-0.13672
0.025005
-0.14508
0.023947
-0.14823
0.021365
-0.14928
0.017837
-0.14967
0.013758
-0.14978
0.0093258
-0.14976
0.0046974
-0.1497
-0.14968
0.012315
-0.15081
0.017437
-0.14199
0.01883
-0.14658
0.018232
-0.14774
0.01641
-0.14756
0.013795
-0.14715
0.010682
-0.14674
0.0072601
-0.14641
0.0036597
-0.14617
-0.14606
0.0073869
-0.15829
0.012045
-0.14682
0.013412
-0.14808
0.013078
-0.14751
0.011819
-0.1464
0.0099703
-0.1454
0.0077375
-0.1446
0.0052642
-0.14402
0.0026497
-0.14363
-0.14345
0.0039158
-0.16229
0.0074433
-0.15049
0.0084726
-0.14924
0.0082936
-0.14745
0.0074937
-0.1457
0.0063205
-0.14431
0.0049064
-0.14327
0.0033357
-0.14252
0.0016713
-0.14204
-0.14181
0.0010775
-0.16345
0.0031641
-0.1527
0.00375
-0.14992
0.0036856
-0.14748
0.0033115
-0.14542
0.0027746
-0.14386
0.0021402
-0.14271
0.0014459
-0.1419
0.0007149
-0.14138
-0.14112
-0.0014822
-0.16205
-0.0010143
-0.15327
-0.00092391
-0.15009
-0.0009098
-0.14757
-0.00086022
-0.14554
-0.00076093
-0.14402
-0.00061864
-0.14292
-0.0004395
-0.14214
-0.00023933
-0.14164
-0.14139
-0.0040177
-0.15808
-0.0051763
-0.15219
-0.0056537
-0.14969
-0.0056073
-0.14767
-0.005142
-0.14605
-0.0043911
-0.14482
-0.0034411
-0.14391
-0.002364
-0.14326
-0.0012115
-0.14283
-0.14261
-0.0066697
-0.15145
-0.0095135
-0.14938
-0.010657
-0.14857
-0.010585
-0.14778
-0.0096666
-0.14701
-0.0082023
-0.14632
-0.006387
-0.14575
-0.0043644
-0.14531
-0.0022193
-0.14501
-0.14484
-0.010211
-0.14127
-0.01504
-0.14458
-0.016658
-0.14696
-0.016262
-0.14819
-0.014638
-0.14865
-0.012291
-0.14869
-0.0095052
-0.14856
-0.0064591
-0.14838
-0.0032696
-0.14822
-0.14812
-0.018978
-0.1223
-0.024194
-0.13936
-0.02466
-0.1465
-0.023005
-0.14985
-0.020191
-0.15146
-0.016705
-0.15219
-0.012806
-0.15247
-0.0086524
-0.15253
-0.0043635
-0.15252
-0.15248
0.011294
-0.13358
0.011987
-0.14003
0.010471
-0.14497
0.0085212
-0.1479
0.0066576
-0.14958
0.0050052
-0.15053
0.0035564
-0.15102
0.0022752
-0.15125
0.0011052
-0.15135
-0.15137
0.005602
-0.13918
0.0075335
-0.14195
0.0074356
-0.14485
0.0065517
-0.147
0.0054108
-0.14844
0.0042373
-0.14934
0.0030966
-0.14987
0.0020177
-0.15017
0.00099557
-0.15032
-0.15037
0.003109
-0.14227
0.0047632
-0.14357
0.0051793
-0.14524
0.0048879
-0.14669
0.0042392
-0.14777
0.0034385
-0.14852
0.0025812
-0.149
0.0017115
-0.14929
0.00085278
-0.14945
-0.14951
0.0018621
-0.14411
0.0030832
-0.14477
0.0035895
-0.14572
0.0035791
-0.14665
0.0032338
-0.14741
0.0027016
-0.14797
0.0020771
-0.14836
0.0013992
-0.1486
0.00070262
-0.14874
-0.1488
0.0011698
-0.14526
0.0020379
-0.14561
0.0024876
-0.14615
0.0025821
-0.14672
0.0024129
-0.14722
0.0020669
-0.14761
0.0016179
-0.14789
0.0011066
-0.14807
0.00056187
-0.14818
-0.14823
0.00075433
-0.146
0.0013618
-0.14618
0.0017172
-0.14648
0.001834
-0.14681
0.0017601
-0.14712
0.0015383
-0.14737
0.0012205
-0.14755
0.00084549
-0.14768
0.00043361
-0.14775
-0.14779
0.00049039
-0.14647
0.00090456
-0.14656
0.0011677
-0.14672
0.0012733
-0.1469
0.0012442
-0.14707
0.0011059
-0.14721
0.00088843
-0.14732
0.00062007
-0.14739
0.00032021
-0.14744
-0.14746
0.00031156
-0.14677
0.00058282
-0.1468
0.00076508
-0.14687
0.00084603
-0.14696
0.00083608
-0.14704
0.00075226
-0.1471
0.00060999
-0.14715
0.00042906
-0.14719
0.00022371
-0.14721
-0.14722
0.0001828
-0.14693
0.00034587
-0.14694
0.0004575
-0.14696
0.00051064
-0.14699
0.00050818
-0.14701
0.00045947
-0.14703
0.00037398
-0.14705
0.00026462
-0.14706
0.00013925
-0.14707
-0.14708
8.4844e-05
0.00015719
0.00020742
0.00023175
0.00023026
0.00020757
0.00016825
0.00011815
6.0228e-05
)
;

boundaryField
{
    bump
    {
        type             calculated;
        value            uniform 0;
    }
    outlet
    {
        type             calculated;
        value            nonuniform List<scalar>
10
(
0.14969
0.1495
0.14929
0.149
0.14858
0.14794
0.14691
0.14496
0.14136
0.13839
)
;
    }
    inlet
    {
        type             calculated;
        value            nonuniform List<scalar>
10
(
-0.147
-0.147
-0.147
-0.147
-0.147
-0.147
-0.147
-0.147
-0.147
-0.147
)
;
    }
    side1
    {
        type             calculated;
        value            uniform 0;
    }
    side2
    {
        type             calculated;
        value            uniform 0;
    }
    symmetry
    {
        type             calculated;
        value            uniform 0;
    }
    top
    {
        type             calculated;
        value            uniform 0;
    }
}

// ************************************************************************* //
