/*--------------------------------*- C++ -*----------------------------------*\\
| =========                 |                                                 |
| \\      /  F ield         | OpenFOAM: The Open Source CFD Toolbox           |
|  \\    /   O peration     | Version:  v1706                                 |
|   \\  /    A nd           | Web:      www.OpenFOAM.com                      |
|    \\/     M anipulation  |                                                 |
\\*---------------------------------------------------------------------------*/
FoamFile
{
    version     2.0;
    format      ascii;
    class       volScalarField;
    location    "0.35";
    object      p;
}
// * * * * * * * * * * * * * * * * * * * * * * * * * * * * * * * * * * * * * //

dimensions      [1 -1 -2 0 0 0 0]


internalField   nonuniform List<scalar>
300
(
1.6273
-1.6196
9.2013
9.7308
6.4016
4.0817
1.9786
0.14004
-1.3338
-2.308
-13.7896
-12.5554
11.5336
19.4042
17.3948
14.547
11.1827
7.9514
5.2985
3.59
-14.8501
-13.6802
18.1047
31.7083
30.0472
25.3263
19.5602
14.1288
9.7588
7.0635
5.2917
0.0067294
32.9732
48.7152
44.5644
35.7017
26.0018
17.2686
10.6608
6.8765
59.8032
37.4492
60.5163
71.4842
60.2641
44.1509
28.6297
15.6742
6.4185
1.3364
166.615
109.2456
103.1895
98.001
73.7145
47.0262
24.3595
7.0118
-4.8337
-11.1092
343.5016
222.1255
157.2691
120.5652
77.4321
38.7352
9.3027
-11.5837
-25.0413
-31.8374
589.3404
364.1772
204.4507
122.436
59.714
12.2756
-20.3962
-41.9333
-55.0419
-61.4226
826.841
475.0735
204.5075
80.217
8.8376
-37.5899
-66.4637
-83.9334
-93.983
-98.7114
767.61
418.4481
106.1278
-22.569
-77.8857
-108.5162
-125.3298
-134.2794
-138.8558
-140.8385
-49.1811
75.8029
-100.547
-174.0093
-187.384
-190.0009
-189.102
-186.9713
-184.9673
-183.8079
-640.4624
-263.9966
-295.5308
-307.4794
-285.6424
-264.9046
-248.373
-236.1674
-228.1684
-224.074
-1082.1668
-583.997
-481.0713
-428.8932
-372.4455
-330.261
-299.6762
-278.5089
-265.1476
-258.3822
-1372.6918
-840.8035
-631.9713
-525.7659
-439.546
-379.548
-337.787
-309.7279
-292.3106
-283.5615
-1496.361
-1002.3109
-726.3469
-583.7816
-478.1454
-406.8953
-358.523
-326.5833
-306.9756
-297.2074
-1423.5367
-1032.9376
-740.1874
-587.4242
-479.2765
-407.2344
-358.9237
-327.243
-307.8631
-298.2249
-1111.9972
-895.5015
-652.409
-525.9513
-438.0944
-378.8973
-338.71
-312.0267
-295.4811
-287.1467
-547.3089
-575.2246
-461.0368
-403.0411
-358.9111
-325.788
-301.1744
-283.6756
-272.1957
-266.1267
168.8908
-142.7922
-214.1382
-249.1289
-259.4109
-258.3078
-252.856
-246.7009
-241.5927
-238.3834
662.4744
186.2537
-19.2061
-118.6444
-167.9825
-192.0036
-202.8554
-207.0203
-208.0212
-207.6908
357.5721
177.7625
35.3804
-53.8244
-108.1858
-140.7234
-159.6693
-170.1581
-175.3905
-177.333
210.9482
132.292
44.6116
-23.9257
-72.2763
-104.8349
-126.051
-139.1645
-146.4955
-149.6862
127.0778
88.1504
35.5818
-12.8404
-51.5186
-80.2202
-100.457
-113.9102
-121.9255
-125.6044
76.4172
55.2185
22.903
-10.509
-39.9642
-63.6316
-81.401
-93.8937
-101.6824
-105.383
44.6347
32.1912
11.5741
-11.5869
-33.5711
-52.4338
-67.3749
-78.3155
-85.4065
-88.8985
24.2731
16.4861
2.7797
-13.5765
-29.9929
-44.8446
-57.1387
-66.4458
-72.6725
-75.8247
11.1779
5.9709
-3.5592
-15.4657
-27.9533
-39.7017
-49.7957
-57.6788
-63.0705
-65.854
2.9108
-0.84034
-7.8731
-16.9584
-26.8091
-36.3544
-44.7939
-51.5436
-56.2505
-58.7216
-1.859
-4.8432
-10.5033
-17.9549
-26.2321
-34.4338
-41.8181
-47.8131
-52.0437
-54.2757
-3.7966
-6.5455
-11.6565
-18.4391
-26.0641
-33.7051
-40.6483
-46.3256
-50.3313
-52.3861
)
;

boundaryField
{
    bump
    {
        type             zeroGradient;
    }
    outlet
    {
        type             fixedValue;
        value            uniform 0;
    }
    inlet
    {
        type             zeroGradient;
    }
    side1
    {
        type             empty;
    }
    side2
    {
        type             empty;
    }
    symmetry
    {
        type             symmetry;
    }
    top
    {
        type             symmetry;
    }
}

// ************************************************************************* //
