/*--------------------------------*- C++ -*----------------------------------*\\
| =========                 |                                                 |
| \\      /  F ield         | OpenFOAM: The Open Source CFD Toolbox           |
|  \\    /   O peration     | Version:  v1706                                 |
|   \\  /    A nd           | Web:      www.OpenFOAM.com                      |
|    \\/     M anipulation  |                                                 |
\\*---------------------------------------------------------------------------*/
FoamFile
{
    version     2.0;
    format      ascii;
    class       volVectorField;
    location    "0.35";
    object      U;
}
// * * * * * * * * * * * * * * * * * * * * * * * * * * * * * * * * * * * * * //

dimensions      [0 1 -1 0 0 0 0]


internalField   nonuniform List<vector>
300
(
(56.4845 -0.4318 0.0035465)
(57.6981 0.46167 0.0025583)
(59.1672 -0.16211 0.0011175)
(59.9653 -0.35506 0.00061739)
(60.3817 -0.27799 0.0003307)
(60.6462 -0.27327 0.00016744)
(60.8156 -0.24132 8.3351e-05)
(60.9332 -0.1862 0.00010719)
(61.0213 -0.11752 0.001177)
(61.0998 -0.045157 0.0012285)
(56.3295 -0.5173 0.0043068)
(57.6579 0.3722 0.0030886)
(58.9668 -0.24145 0.0015241)
(59.8231 -0.42694 0.00090522)
(60.3367 -0.31394 0.00054453)
(60.6522 -0.2894 0.00033312)
(60.8613 -0.24776 0.00021611)
(61.0129 -0.18715 0.00021846)
(61.1265 -0.11491 0.0012643)
(61.2191 -0.043644 0.0013111)
(56.1918 -0.57195 0.0050503)
(57.6053 0.37104 0.003572)
(58.8994 -0.23113 0.001851)
(59.7695 -0.4857 0.001091)
(60.3173 -0.36232 0.00064233)
(60.6608 -0.31848 0.00037317)
(60.8934 -0.26824 0.0002161)
(61.0606 -0.20079 0.00019156)
(61.1871 -0.12032 0.0012081)
(61.2875 -0.044838 0.0012476)
(55.9394 -0.62147 0.0060054)
(57.4886 0.39684 0.0042334)
(58.8172 -0.16697 0.002323)
(59.7066 -0.53372 0.0013984)
(60.2921 -0.4256 0.00084636)
(60.6707 -0.37005 0.00050888)
(60.9323 -0.30739 0.0003039)
(61.1176 -0.22877 0.00024634)
(61.2571 -0.13995 0.0012281)
(61.3631 -0.052602 0.0012573)
(55.5295 -0.70072 0.0070948)
(57.2815 0.38694 0.0049987)
(58.6943 -0.083228 0.0028666)
(59.6199 -0.58966 0.001754)
(60.2645 -0.52124 0.0010832)
(60.6889 -0.45487 0.00066692)
(60.9875 -0.37476 0.00040627)
(61.2018 -0.27756 0.00030953)
(61.3545 -0.17057 0.0012511)
(61.4612 -0.063177 0.0012673)
(54.8631 -0.86014 0.0083063)
(56.9129 0.25626 0.0058619)
(58.4984 -0.031591 0.0034775)
(59.5026 -0.68783 0.0021547)
(60.2381 -0.67441 0.0013503)
(60.7295 -0.58914 0.00084501)
(61.0749 -0.48689 0.00052143)
(61.3188 -0.35807 0.00037964)
(61.4866 -0.21631 0.0012761)
(61.597 -0.078082 0.001277)
(53.7675 -1.1701 0.0096162)
(56.2717 -0.13064 0.0068096)
(58.2028 -0.11169 0.004146)
(59.37 -0.88282 0.0025931)
(60.2404 -0.9235 0.0016416)
(60.8294 -0.79609 0.0010385)
(61.2267 -0.64467 0.0006459)
(61.4925 -0.46815 0.00045406)
(61.6696 -0.28365 0.0013014)
(61.7788 -0.1015 0.0012854)
(51.9487 -1.7475 0.010987)
(55.2332 -1.0098 0.0078201)
(57.8315 -0.49935 0.0048572)
(59.2999 -1.2619 0.0030578)
(60.3467 -1.3146 0.0019482)
(61.035 -1.096 0.0012403)
(61.4745 -0.85125 0.00077437)
(61.7533 -0.60213 0.00052897)
(61.9246 -0.36055 0.0013247)
(62.0203 -0.12671 0.0012915)
(49.2161 -2.8346 0.01237)
(53.8621 -2.8436 0.0088696)
(57.5868 -1.4938 0.0055935)
(59.4815 -1.9287 0.0035341)
(60.6823 -1.8534 0.0022576)
(61.4144 -1.4671 0.0014407)
(61.8485 -1.0903 0.0008997)
(62.1045 -0.74659 0.00059943)
(62.2496 -0.43579 0.0013428)
(62.325 -0.14986 0.0012939)
(47.618 -4.8343 0.013704)
(53.1424 -6.347 0.0099268)
(58.0106 -3.3969 0.0063281)
(60.1948 -2.8891 0.0039974)
(61.369 -2.4627 0.0025497)
(62.0177 -1.8333 0.0016242)
(62.3626 -1.2993 0.0010111)
(62.5409 -0.86236 0.00065848)
(62.6314 -0.49611 0.0013517)
(62.675 -0.16908 0.001291)
(53.8197 -7.1854 0.014903)
(55.6489 -10.8198 0.010859)
(59.9489 -5.8388 0.0069412)
(61.6751 -3.8328 0.0043612)
(62.4534 -2.9222 0.0027625)
(62.8351 -2.0705 0.0017486)
(62.9946 -1.4102 0.0010821)
(63.0465 -0.91018 0.00069041)
(63.0541 -0.51695 0.0013426)
(63.0517 -0.17479 0.0012812)
(62.7658 -6.232 0.01526)
(60.1058 -11.3689 0.010745)
(62.7898 -5.9873 0.0065913)
(63.585 -3.6264 0.004071)
(63.7316 -2.6904 0.0025513)
(63.7126 -1.8549 0.0016042)
(63.6287 -1.2411 0.00099187)
(63.5343 -0.79144 0.00064547)
(63.4573 -0.44684 0.0013418)
(63.4158 -0.1481 0.0012567)
(68.8304 -3.856 0.014636)
(64.0256 -9.4702 0.0098373)
(65.1707 -5.2293 0.0057567)
(65.1501 -2.8933 0.0034947)
(64.7988 -2.1126 0.0021662)
(64.4573 -1.4147 0.0013527)
(64.1676 -0.92858 0.0008363)
(63.9439 -0.58408 0.00056219)
(63.792 -0.32895 0.0013037)
(63.716 -0.10642 0.0012129)
(72.759 -0.89846 0.013083)
(67.232 -6.0038 0.0082504)
(67.0084 -3.7418 0.0046337)
(66.3166 -1.7296 0.002787)
(65.5821 -1.2521 0.0017248)
(64.9965 -0.79134 0.0010754)
(64.5502 -0.49566 0.00066417)
(64.2283 -0.29995 0.00046711)
(64.0188 -0.16796 0.0012403)
(63.9144 -0.051524 0.0011568)
(74.7697 2.1858 0.01152)
(69.3558 -1.6861 0.0066592)
(68.1248 -1.6884 0.0036338)
(66.9768 -0.27338 0.0021769)
(65.9999 -0.19166 0.0013405)
(65.2649 -0.041852 0.0008291)
(64.7241 0.018513 0.00050796)
(64.3446 0.033945 0.00037842)
(64.1018 0.021313 0.0011609)
(63.9806 0.011933 0.0010931)
(74.8602 5.0577 0.010515)
(70.1582 2.8436 0.0056663)
(68.4002 0.75044 0.0030143)
(67.0492 1.3143 0.0018046)
(65.9954 0.96019 0.0011022)
(65.2224 0.75782 0.00067338)
(64.6625 0.56336 0.00040703)
(64.2725 0.38549 0.00032065)
(64.0239 0.21966 0.0010803)
(63.8992 0.077344 0.0010281)
(72.8681 7.4114 0.0092971)
(69.369 6.9314 0.0049496)
(67.7243 3.3091 0.0025414)
(66.4876 2.863 0.0015015)
(65.5526 2.0703 0.00090804)
(64.8665 1.5146 0.00054835)
(64.3682 1.0744 0.00032766)
(64.0174 0.71419 0.00027345)
(63.7915 0.40475 0.00099498)
(63.6754 0.13818 0.00096133)
(68.4623 8.8355 0.006567)
(66.7951 9.9395 0.0036526)
(65.9763 5.5273 0.0017903)
(65.2611 4.1573 0.0010456)
(64.6809 2.9752 0.00064301)
(64.2208 2.1277 0.00039268)
(63.8648 1.4872 0.00023525)
(63.6024 0.97976 0.00021222)
(63.4264 0.55453 0.00090695)
(63.332 0.18731 0.0008923)
(61.4719 8.8172 0.0030051)
(62.5701 11.0125 0.0019115)
(63.3296 6.7878 0.0008876)
(63.5385 4.8642 0.00053678)
(63.5101 3.4854 0.00035891)
(63.3798 2.4926 0.00023035)
(63.2232 1.7435 0.00014025)
(63.0809 1.1502 0.00014155)
(62.9724 0.65359 0.00081892)
(62.9085 0.21971 0.000823)
(53.7431 6.7564 0.00095068)
(58.1805 9.1954 0.00084408)
(60.6818 6.4624 0.00030424)
(61.8244 4.7323 0.00018197)
(62.3234 3.4937 0.00013516)
(62.5104 2.556 9.2462e-05)
(62.5484 1.8159 5.7973e-05)
(62.5245 1.2108 6.9202e-05)
(62.4844 0.69381 0.00073552)
(62.4515 0.23228 0.00075592)
(52.4954 2.6254 0.00065944)
(56.9542 4.9323 0.0006899)
(59.3964 4.7611 0.00013413)
(60.7082 3.9458 3.7814e-05)
(61.4034 3.1149 2.3492e-05)
(61.7572 2.3765 1.7075e-05)
(61.9198 1.7358 1.1595e-05)
(61.9827 1.1778 7.9043e-06)
(61.9991 0.68304 0.0006638)
(61.9959 0.22764 0.00069548)
(55.8923 1.25 0.00063302)
(57.6491 2.7915 0.00062821)
(59.1531 3.1578 6.7617e-05)
(60.1647 2.9152 7.7583e-06)
(60.7994 2.4682 3.3035e-06)
(61.1781 1.9768 3.0024e-06)
(61.3901 1.4947 2.9268e-06)
(61.4988 1.0384 2.8665e-06)
(61.5487 0.61248 0.00060986)
(61.565 0.2059 0.00063577)
(57.5612 0.67525 0.00057019)
(58.3369 1.6655 0.00056794)
(59.2232 2.0901 4.0746e-05)
(59.9368 2.0978 4.5073e-06)
(60.4417 1.8869 2.5676e-06)
(60.7746 1.5776 2.4361e-06)
(60.9817 1.2309 2.3771e-06)
(61.1 0.87469 2.3259e-06)
(61.1614 0.52344 0.00055348)
(61.1867 0.17688 0.00057189)
(58.5173 0.39701 0.00050399)
(58.8947 1.04 0.00050292)
(59.4036 1.3977 2.4104e-05)
(59.8723 1.4916 2.7581e-06)
(60.2392 1.4085 1.931e-06)
(60.5006 1.2208 1.8602e-06)
(60.6749 0.97879 1.8122e-06)
(60.7823 0.70981 1.7703e-06)
(60.8414 0.43021 0.0004927)
(60.8671 0.14596 0.00050507)
(59.0993 0.24618 0.00043524)
(59.2944 0.67068 0.00043473)
(59.5851 0.94438 1.3856e-05)
(59.879 1.0525 1.7154e-06)
(60.1285 1.0317 1.3651e-06)
(60.3171 0.92127 1.3164e-06)
(60.4491 0.75513 1.2765e-06)
(60.5354 0.5569 1.243e-06)
(60.5849 0.34206 0.00042811)
(60.6069 0.11675 0.0004359)
(59.4674 0.1573 0.00036462)
(59.5697 0.44033 0.00036438)
(59.7338 0.64027 7.5823e-06)
(59.9102 0.73552 1.0366e-06)
(60.0685 0.74138 8.8398e-07)
(60.1944 0.67791 8.4438e-07)
(60.2857 0.56537 8.1069e-07)
(60.3472 0.42249 7.8401e-07)
(60.3841 0.26239 0.00036045)
(60.4015 0.090018 0.00036497)
(59.704 0.10171 0.00029272)
(59.7559 0.28935 0.00029261)
(59.8446 0.42977 3.828e-06)
(59.9438 0.50464 5.831e-07)
(60.0361 0.51882 5.0855e-07)
(60.1127 0.48292 4.7362e-07)
(60.1696 0.40883 4.4472e-07)
(60.2084 0.30866 4.2303e-07)
(60.2323 0.19289 0.0002905)
(60.2442 0.066324 0.00029285)
(59.8545 0.064611 0.00022001)
(59.8783 0.18544 0.00021998)
(59.9214 0.27924 1.7009e-06)
(59.971 0.33293 2.9491e-07)
(60.0181 0.3468 2.4915e-07)
(60.058 0.32675 2.1738e-07)
(60.0885 0.27973 1.9204e-07)
(60.1097 0.213 1.7371e-07)
(60.1227 0.13394 0.00021897)
(60.1295 0.046159 0.00022)
(59.9448 0.038166 0.00014688)
(59.9529 0.10994 0.00014687)
(59.9693 0.16663 6.2102e-07)
(59.9889 0.20053 1.3454e-07)
(60.0075 0.21076 9.8577e-08)
(60.0231 0.19994 6.9195e-08)
(60.0353 0.17204 4.6366e-08)
(60.0439 0.13165 3.0097e-08)
(60.0495 0.083108 0.00014643)
(60.0531 0.028643 0.00014677)
(59.9885 0.017695 3.8672e-08)
(59.9898 0.05049 3.3838e-08)
(59.9933 0.076083 -7.3305e-05)
(59.9976 0.091821 -7.3408e-05)
(60.0017 0.096803 -7.3429e-05)
(60.0051 0.091938 -7.3446e-05)
(60.0076 0.079067 -7.3459e-05)
(60.0094 0.060327 -7.3468e-05)
(60.0107 0.037653 -1.0588e-07)
(60.012 0.012723 -4.9858e-08)
)
;

boundaryField
{
    bump
    {
        type             noSlip;
    }
    outlet
    {
        type             zeroGradient;
    }
    inlet
    {
        type             fixedValue;
        value            uniform (60 0 0);
    }
    side1
    {
        type             empty;
    }
    side2
    {
        type             empty;
    }
    symmetry
    {
        type             symmetry;
    }
    top
    {
        type             symmetry;
    }
}

// ************************************************************************* //
