/*--------------------------------*- C++ -*----------------------------------*\\
| =========                 |                                                 |
| \\      /  F ield         | OpenFOAM: The Open Source CFD Toolbox           |
|  \\    /   O peration     | Version:  v1706                                 |
|   \\  /    A nd           | Web:      www.OpenFOAM.com                      |
|    \\/     M anipulation  |                                                 |
\\*---------------------------------------------------------------------------*/
FoamFile
{
    version     2.0;
    format      ascii;
    class       surfaceScalarField;
    location    "0.15";
    object      mdot_f;
}
// * * * * * * * * * * * * * * * * * * * * * * * * * * * * * * * * * * * * * //

dimensions      [1 0 -1 0 0 0 0]


internalField   nonuniform List<scalar>
560
(
-0.0011122
-0.14645
-0.0016593
-0.14668
-0.0018766
-0.14698
-0.0019234
-0.14727
-0.0018201
-0.14748
-0.0015884
-0.14766
-0.0012668
-0.14782
-0.00088197
-0.14794
-0.00044976
-0.14805
-0.14814
-0.00094086
-0.14551
-0.0015647
-0.14609
-0.0018695
-0.1467
-0.0019457
-0.14721
-0.0018633
-0.1476
-0.0016453
-0.14791
-0.0013171
-0.14817
-0.00092694
-0.14837
-0.00048566
-0.14852
-0.14865
-0.00094738
-0.14457
-0.0016287
-0.14549
-0.0019917
-0.14641
-0.0020803
-0.14716
-0.002001
-0.14775
-0.0017808
-0.14821
-0.0014225
-0.14857
-0.0010077
-0.14886
-0.00054076
-0.14907
-0.14921
-0.0010841
-0.14351
-0.0018333
-0.14478
-0.0022385
-0.14607
-0.0023535
-0.14709
-0.0022435
-0.1479
-0.0019892
-0.14853
-0.001602
-0.14901
-0.0011232
-0.14939
-0.00059539
-0.14966
-0.14986
-0.0013147
-0.14225
-0.002183
-0.14394
-0.0026381
-0.14568
-0.0027685
-0.14704
-0.0026039
-0.1481
-0.0022871
-0.14893
-0.0018425
-0.14954
-0.0012814
-0.14999
-0.0006792
-0.15032
-0.15056
-0.0016316
-0.14066
-0.0027251
-0.14291
-0.0032399
-0.14521
-0.0033416
-0.147
-0.0031167
-0.14836
-0.0026758
-0.1494
-0.0021145
-0.15016
-0.0014713
-0.15072
-0.00078214
-0.1511
-0.15136
-0.0021195
-0.13857
-0.0035441
-0.14158
-0.0041237
-0.14467
-0.0041363
-0.14705
-0.0037768
-0.1488
-0.003162
-0.15003
-0.0024532
-0.15091
-0.0016712
-0.15153
-0.0008678
-0.15196
-0.15226
-0.0030053
-0.13559
-0.0048911
-0.13973
-0.0054602
-0.14414
-0.0052137
-0.14732
-0.0045516
-0.1495
-0.0037033
-0.15094
-0.0028099
-0.15187
-0.0018722
-0.15248
-0.0009607
-0.15291
-0.15323
-0.0050271
-0.13061
-0.0073881
-0.13737
-0.0074827
-0.14406
-0.0066011
-0.1482
-0.0054245
-0.15068
-0.0042123
-0.15216
-0.0030761
-0.15304
-0.0020175
-0.15359
-0.0010284
-0.15396
-0.15425
-0.011447
-0.11918
-0.012171
-0.13665
-0.010272
-0.14597
-0.0081067
-0.15038
-0.0061915
-0.15262
-0.0045562
-0.15378
-0.0031969
-0.15439
-0.0020284
-0.15476
-0.00099712
-0.15502
-0.15526
0.023191
-0.14236
0.027162
-0.14064
0.026944
-0.14574
0.02503
-0.14844
0.021983
-0.14957
0.018214
-0.15001
0.013973
-0.15018
0.0094716
-0.15024
0.0047826
-0.15032
-0.15047
0.012876
-0.15522
0.018486
-0.14621
0.01982
-0.14706
0.018914
-0.14752
0.016836
-0.14746
0.01407
-0.14721
0.010869
-0.14696
0.0073999
-0.14677
0.0037458
-0.14668
-0.14671
0.0068442
-0.16206
0.011546
-0.15082
0.013251
-0.1487
0.013054
-0.14728
0.011806
-0.14618
0.0099549
-0.14534
0.0077413
-0.1447
0.0052957
-0.14429
0.0026953
-0.14406
-0.144
0.0029261
-0.16497
0.0059031
-0.15374
0.0073028
-0.15006
0.0075066
-0.14741
0.0069566
-0.14557
0.0059507
-0.14428
0.0046604
-0.14338
0.0031991
-0.14279
0.0016418
-0.14245
-0.14234
1.8708e-07
-0.16491
0.0011924
-0.15484
0.0020195
-0.15081
0.0023605
-0.1477
0.0023367
-0.1455
0.0020835
-0.14396
0.0016739
-0.14291
0.0011666
-0.14223
0.00060648
-0.14184
-0.1417
-0.0022341
-0.16265
-0.0026302
-0.15435
-0.0025311
-0.15079
-0.002268
-0.14787
-0.001933
-0.14576
-0.0015691
-0.14426
-0.0011853
-0.14324
-0.0007877
-0.14257
-0.00038809
-0.14219
-0.14204
-0.0042572
-0.15833
-0.00602
-0.1525
-0.006692
-0.15006
-0.0066026
-0.14789
-0.0059953
-0.14626
-0.0050699
-0.1451
-0.0039347
-0.1443
-0.0026755
-0.14376
-0.0013395
-0.14345
-0.14334
-0.0064603
-0.15178
-0.0096543
-0.14918
-0.011076
-0.14854
-0.0111
-0.14779
-0.010176
-0.14713
-0.0086406
-0.14657
-0.0067142
-0.14614
-0.0045703
-0.14583
-0.0022909
-0.14565
-0.1456
-0.0099089
-0.14182
-0.014828
-0.14416
-0.016638
-0.14661
-0.016353
-0.14798
-0.014782
-0.14862
-0.012445
-0.14884
-0.0096257
-0.14888
-0.0065265
-0.14886
-0.0032754
-0.14883
-0.14884
-0.018862
-0.12289
-0.023847
-0.13908
-0.024351
-0.14604
-0.022775
-0.14949
-0.020026
-0.15128
-0.016601
-0.15221
-0.012735
-0.15269
-0.0085911
-0.15293
-0.0043074
-0.15305
-0.15311
0.010808
-0.13361
0.011625
-0.1398
0.010246
-0.14458
0.0083969
-0.14758
0.0066148
-0.14942
0.0050159
-0.15055
0.003597
-0.15121
0.0023347
-0.1516
0.001166
-0.15182
-0.15192
0.0054175
-0.13897
0.0073344
-0.14164
0.0073211
-0.14448
0.0065046
-0.14671
0.005414
-0.14828
0.0042795
-0.14934
0.0031545
-0.15004
0.0020794
-0.15047
0.0010509
-0.15073
-0.15086
0.0030282
-0.14195
0.0046763
-0.14322
0.0051453
-0.14489
0.0049074
-0.14642
0.0042956
-0.14762
0.0035193
-0.14851
0.0026679
-0.14914
0.0017874
-0.14956
0.00090828
-0.14981
-0.14993
0.0018448
-0.14374
0.0030793
-0.14441
0.0036266
-0.14539
0.0036604
-0.1464
0.0033439
-0.14728
0.0028234
-0.14796
0.0021951
-0.14848
0.0014939
-0.14883
0.00076171
-0.14905
-0.14916
0.0011937
-0.1449
0.0020942
-0.14527
0.0025859
-0.14586
0.0027195
-0.1465
0.0025736
-0.1471
0.0022305
-0.1476
0.0017663
-0.14798
0.0012209
-0.14826
0.00062763
-0.14844
-0.14852
0.00080641
-0.14569
0.0014614
-0.1459
0.0018641
-0.14624
0.0020183
-0.14664
0.0019636
-0.14702
0.0017384
-0.14736
0.0013952
-0.14763
0.00097621
-0.14782
0.00050539
-0.14795
-0.14801
0.00056022
-0.14623
0.0010324
-0.14635
0.0013472
-0.14654
0.0014899
-0.14677
0.0014771
-0.147
0.0013308
-0.1472
0.0010814
-0.14737
0.00076125
-0.14749
0.00039485
-0.14758
-0.14762
0.00038903
-0.14661
0.00072224
-0.14667
0.00095709
-0.14676
0.0010739
-0.14688
0.0010774
-0.14699
0.00098278
-0.1471
0.00080631
-0.14719
0.00057116
-0.14725
0.00029676
-0.1473
-0.14732
0.00025602
-0.14686
0.00047716
-0.14688
0.00063775
-0.14691
0.00072261
-0.14696
0.0007307
-0.147
0.00067047
-0.14703
0.00055277
-0.14707
0.00039374
-0.14709
0.000205
-0.14711
-0.14711
0.00014093
0.00026106
0.0003491
0.00039676
0.00040211
0.00036943
0.00030471
0.0002165
0.00011197
)
;

boundaryField
{
    bump
    {
        type             calculated;
        value            uniform 0;
    }
    outlet
    {
        type             calculated;
        value            nonuniform List<scalar>
10
(
0.14799
0.1479
0.14781
0.14771
0.14759
0.14747
0.14733
0.14716
0.14704
0.14712
)
;
    }
    inlet
    {
        type             calculated;
        value            nonuniform List<scalar>
10
(
-0.147
-0.147
-0.147
-0.147
-0.147
-0.147
-0.147
-0.147
-0.147
-0.147
)
;
    }
    side1
    {
        type             calculated;
        value            uniform 0;
    }
    side2
    {
        type             calculated;
        value            uniform 0;
    }
    symmetry
    {
        type             calculated;
        value            uniform 0;
    }
    top
    {
        type             calculated;
        value            uniform 0;
    }
}

// ************************************************************************* //
