/*--------------------------------*- C++ -*----------------------------------*\\
| =========                 |                                                 |
| \\      /  F ield         | OpenFOAM: The Open Source CFD Toolbox           |
|  \\    /   O peration     | Version:  v1706                                 |
|   \\  /    A nd           | Web:      www.OpenFOAM.com                      |
|    \\/     M anipulation  |                                                 |
\\*---------------------------------------------------------------------------*/
FoamFile
{
    version     2.0;
    format      ascii;
    class       volScalarField;
    location    "0.15";
    object      p;
}
// * * * * * * * * * * * * * * * * * * * * * * * * * * * * * * * * * * * * * //

dimensions      [1 -1 -2 0 0 0 0]


internalField   nonuniform List<scalar>
300
(
32.1537
20.1644
9.9581
2.4294
-3.7942
-8.7683
-12.5747
-15.3075
-17.0082
-17.7898
69.562
45.6372
23.4216
6.3961
-7.5804
-18.6238
-26.8903
-32.75
-36.3192
-37.8371
107.0627
70.4843
35.0105
7.6431
-14.3438
-31.2943
-43.6049
-52.1532
-57.2423
-59.3095
146.1868
94.4753
43.3293
4.3941
-25.5479
-47.8977
-63.6074
-73.9673
-80.0427
-82.5394
186.3637
115.5049
45.4014
-6.1947
-43.688
-70.2846
-88.053
-99.0715
-105.2529
-107.6335
223.7215
128.7341
36.3699
-28.0487
-71.6119
-100.0059
-117.6618
-127.839
-132.9414
-134.5779
247.4259
124.2636
8.0178
-66.8207
-112.3991
-138.612
-152.8068
-159.5728
-162.1751
-162.5475
233.0996
83.3148
-51.7148
-128.632
-168.2105
-186.307
-192.7239
-193.232
-191.631
-189.8491
126.2788
-27.137
-157.4549
-217.6487
-238.2763
-240.1329
-234.2103
-226.1415
-218.9593
-214.3898
-205.2696
-254.92
-316.3038
-328.053
-314.4098
-292.8595
-271.4467
-253.4401
-240.4025
-233.2379
-1035.5652
-624.8949
-506.3644
-438.0305
-380.4854
-333.479
-296.9768
-270.1159
-252.3703
-243.3557
-1469.614
-912.7177
-665.4669
-524.6821
-428.3198
-359.4786
-310.3488
-276.4093
-254.9535
-244.4665
-1633.9964
-1081.1403
-769.2122
-580.9987
-455.8788
-370.0369
-310.8724
-271.1903
-246.6895
-235.0298
-1581.2649
-1108.441
-786.9378
-584.4105
-448.3124
-355.5153
-292.2963
-250.3356
-224.6749
-212.6678
-1350.4138
-997.4765
-709.5002
-524.1381
-397.4238
-310.3897
-250.9507
-211.5001
-187.4203
-176.1969
-964.5412
-757.4016
-539.4306
-399.2895
-301.8589
-233.8169
-186.5528
-154.7545
-135.1883
-126.0728
-432.5119
-400.0927
-289.071
-219.4772
-168.4392
-130.5377
-102.6548
-83.0217
-70.5845
-64.8122
197.3676
31.619
6.4824
-10.2564
-14.78
-12.6317
-7.7398
-2.6049
1.2708
3.0633
799.8792
440.8688
281.5478
186.8408
133.2855
103.4582
87.1993
78.5753
74.1241
72.0261
1120.603
681.8781
460.128
330.6203
251.807
202.8174
172.202
153.3305
142.2462
136.8333
807.7898
646.6566
503.1131
397.8896
323.7781
272.4897
237.5438
214.4433
200.1734
193.0465
665.7422
592.1495
503.7172
426.1493
364.8425
318.7937
285.459
262.376
247.704
240.3871
582.8619
545.0567
490.9613
436.5303
388.9978
350.5461
321.1491
299.955
286.1133
279.155
531.6275
510.2244
476.0823
438.1912
402.4377
371.6403
346.9432
328.5409
316.2228
309.957
498.2219
485.0804
462.6943
436.0694
409.4063
385.2667
365.1145
349.6568
339.1128
333.7123
475.5891
466.924
451.645
432.5589
412.5574
393.7561
377.5312
364.7635
355.9364
351.4063
459.9155
453.8198
442.8899
428.7917
413.5136
398.7156
385.6269
375.1278
367.7855
364.0239
449.1704
444.5636
436.2815
425.4027
413.317
401.3288
390.5343
381.7548
375.5819
372.4521
442.3783
438.614
431.8614
422.8839
412.7483
402.5312
393.2007
385.5331
380.1313
377.4158
439.2418
435.9669
429.882
421.7309
412.4578
403.0361
394.3682
387.2043
382.1228
379.4796
)
;

boundaryField
{
    bump
    {
        type             zeroGradient;
    }
    outlet
    {
        type             fixedValue;
        value            uniform 0;
    }
    inlet
    {
        type             zeroGradient;
    }
    side1
    {
        type             empty;
    }
    side2
    {
        type             empty;
    }
    symmetry
    {
        type             symmetry;
    }
    top
    {
        type             symmetry;
    }
}

// ************************************************************************* //
