/*--------------------------------*- C++ -*----------------------------------*\\
| =========                 |                                                 |
| \\      /  F ield         | OpenFOAM: The Open Source CFD Toolbox           |
|  \\    /   O peration     | Version:  v1706                                 |
|   \\  /    A nd           | Web:      www.OpenFOAM.com                      |
|    \\/     M anipulation  |                                                 |
\\*---------------------------------------------------------------------------*/
FoamFile
{
    version     2.0;
    format      ascii;
    class       volVectorField;
    location    "0.15";
    object      U;
}
// * * * * * * * * * * * * * * * * * * * * * * * * * * * * * * * * * * * * * //

dimensions      [0 1 -1 0 0 0 0]


internalField   nonuniform List<vector>
300
(
(60.0493 -0.60086 0.00021912)
(60.0161 -0.8185 0.00027659)
(60.0635 -0.89059 -0.00012655)
(60.1365 -0.97675 -0.00010741)
(60.1929 -0.96505 -9.1699e-05)
(60.2425 -0.87845 -7.5492e-05)
(60.2887 -0.73571 -5.7202e-05)
(60.3295 -0.55574 -3.0702e-05)
(60.3686 -0.34477 0.00048576)
(60.4037 -0.1162 0.00050704)
(59.2933 -0.69578 0.00021371)
(59.5842 -0.8603 0.00028922)
(59.8927 -0.92164 -8.7213e-05)
(60.15 -1.0291 -6.3424e-05)
(60.3492 -1.0208 -4.3634e-05)
(60.5077 -0.93315 -2.2887e-05)
(60.6375 -0.78337 8.3459e-07)
(60.7367 -0.59332 3.4221e-05)
(60.8142 -0.37219 0.00055379)
(60.8739 -0.12714 0.00058159)
(58.8264 -0.87201 3.9592e-05)
(59.2943 -1.0109 0.00013783)
(59.7667 -1.0308 -0.00020562)
(60.1442 -1.1439 -0.00017564)
(60.4384 -1.1266 -0.00015034)
(60.6652 -1.0273 -0.00012352)
(60.844 -0.85986 -9.2661e-05)
(60.9823 -0.64935 -5.0808e-05)
(61.0835 -0.41044 0.00047289)
(61.1558 -0.14194 0.00050895)
(58.304 -1.1327 -8.5837e-05)
(58.9665 -1.2711 3.9653e-05)
(59.6287 -1.2186 -0.00026455)
(60.1453 -1.3262 -0.00022714)
(60.5473 -1.2887 -0.00019498)
(60.8496 -1.1595 -0.00016046)
(61.0803 -0.96597 -0.00012054)
(61.2594 -0.72618 -6.8415e-05)
(61.3865 -0.45407 0.00046116)
(61.4746 -0.15588 0.00050761)
(57.6939 -1.4859 -0.00023363)
(58.584 -1.6534 -7.7025e-05)
(59.4789 -1.497 -0.00033616)
(60.1633 -1.5813 -0.00029048)
(60.6806 -1.5071 -0.00025024)
(61.0692 -1.3318 -0.00020638)
(61.3547 -1.0987 -0.0001553)
(61.5652 -0.82014 -9.0938e-05)
(61.7179 -0.50934 0.00044661)
(61.827 -0.17459 0.00050594)
(56.963 -1.9464 -0.00040069)
(58.1422 -2.1879 -0.00021104)
(59.3268 -1.8897 -0.0004204)
(60.212 -1.9167 -0.00036628)
(60.8592 -1.7847 -0.00031697)
(61.3376 -1.5452 -0.00026212)
(61.6775 -1.2469 -0.00019764)
(61.9196 -0.91917 -0.00011902)
(62.091 -0.57 0.00042895)
(62.2125 -0.19538 0.00050395)
(56.0736 -2.5448 -0.00057726)
(57.6398 -2.9291 -0.00035713)
(59.1948 -2.4251 -0.00051471)
(60.323 -2.3472 -0.0004534)
(61.1155 -2.1203 -0.0003947)
(61.6684 -1.7906 -0.00032753)
(62.052 -1.4134 -0.00024757)
(62.322 -1.0224 -0.00015288)
(62.5062 -0.6216 0.00040816)
(62.6386 -0.20975 0.00050174)
(54.964 -3.3211 -0.00074185)
(57.0732 -3.9741 -0.00050251)
(59.139 -3.1639 -0.00061164)
(60.5576 -2.8923 -0.00054712)
(61.4941 -2.5006 -0.00048019)
(62.1021 -2.0412 -0.00040035)
(62.4994 -1.5735 -0.00030359)
(62.7641 -1.1149 -0.00019172)
(62.9487 -0.66601 0.00038476)
(63.0925 -0.22239 0.0004996)
(53.4104 -4.3387 -0.00085224)
(56.5051 -5.5197 -0.00062071)
(59.3078 -4.2141 -0.00069449)
(61.0246 -3.5631 -0.00063588)
(62.0507 -2.9088 -0.00056486)
(62.6637 -2.2686 -0.00047424)
(63.0302 -1.6841 -0.00036124)
(63.2586 -1.1618 -0.00023273)
(63.419 -0.685 0.00036037)
(63.5543 -0.22676 0.00049809)
(51.6695 -5.8563 -0.00071843)
(56.4498 -8.0861 -0.00053064)
(59.9622 -5.7096 -0.00063547)
(61.7922 -4.3063 -0.00062189)
(62.763 -3.2622 -0.00057007)
(63.2831 -2.4097 -0.00048855)
(63.5691 -1.7138 -0.00037836)
(63.7451 -1.1412 -0.00024861)
(63.8725 -0.64999 0.00035026)
(63.9976 -0.20835 0.00050217)
(58.4226 -8.0004 -0.00019672)
(59.3942 -11.6607 -0.00024756)
(62.1691 -7.513 -0.00039689)
(63.3802 -5.0068 -0.00042867)
(63.8894 -3.4949 -0.00039231)
(64.1015 -2.4314 -0.00033986)
(64.1871 -1.6532 -0.00027382)
(64.2329 -1.0604 -0.00018161)
(64.2828 -0.5819 0.00038864)
(64.3686 -0.18201 0.00052471)
(67.505 -6.7756 0.0015055)
(63.7569 -11.1521 0.0010793)
(64.7514 -6.9875 0.00043709)
(65.0532 -4.4734 0.00012088)
(65.0151 -3.0144 -3.1605e-06)
(64.8879 -2.0341 -5.2838e-05)
(64.7617 -1.3439 -6.7974e-05)
(64.6701 -0.83939 -4.0033e-05)
(64.6329 -0.45161 0.00049426)
(64.6606 -0.13981 0.00056426)
(72.7328 -4.1847 0.003982)
(67.2933 -8.1766 0.00308)
(66.8328 -5.4524 0.0017993)
(66.3469 -3.402 0.0010515)
(65.8689 -2.2284 0.00062931)
(65.4742 -1.4636 0.0003867)
(65.1794 -0.94183 0.00024061)
(64.9836 -0.57219 0.00016748)
(64.8797 -0.29843 0.00062644)
(64.8588 -0.090264 0.00060524)
(75.4569 -1.1301 0.0060398)
(69.8176 -4.0488 0.0045865)
(68.3906 -3.2958 0.002989)
(67.2968 -1.9416 0.001984)
(66.4727 -1.2124 0.0013385)
(65.8705 -0.7506 0.00091006)
(65.4434 -0.45358 0.00061127)
(65.1631 -0.25989 0.00041733)
(65.0056 -0.12486 0.00077172)
(64.9537 -0.034679 0.00064519)
(76.0767 1.9027 0.0077991)
(71.0085 0.34707 0.0053746)
(69.1853 -0.81636 0.0035729)
(67.7599 -0.24842 0.0024548)
(66.7342 -0.053287 0.0017138)
(66.009 0.048885 0.0011963)
(65.5083 0.091233 0.00081703)
(65.1812 0.092021 0.00055937)
(64.9923 0.070343 0.00084425)
(64.9256 0.02679 0.0006575)
(74.7935 4.625 0.0094444)
(70.7904 4.4884 0.0060284)
(69.0793 1.7868 0.003875)
(67.635 1.5359 0.0026079)
(66.5952 1.1779 0.0017973)
(65.8583 0.89739 0.0012418)
(65.3516 0.66473 0.00083961)
(65.0203 0.46217 0.00057488)
(64.8282 0.27794 0.00083249)
(64.7577 0.093937 0.0006404)
(71.7217 6.7536 0.009543)
(69.0911 7.9098 0.0059709)
(67.9429 4.2089 0.0036769)
(66.814 3.2015 0.0023964)
(65.9823 2.341 0.001609)
(65.3815 1.7067 0.0010867)
(64.9597 1.2181 0.00071836)
(64.6761 0.82212 0.00049176)
(64.5102 0.48212 0.00075922)
(64.4474 0.1627 0.0006022)
(66.9032 7.9777 0.0067134)
(65.9984 10.1435 0.0042207)
(65.822 6.0657 0.00251)
(65.3435 4.4817 0.0016339)
(64.9367 3.2502 0.0011117)
(64.6037 2.3476 0.00075811)
(64.3475 1.6648 0.00049907)
(64.1637 1.1185 0.00035018)
(64.0507 0.65238 0.00065889)
(64.0108 0.22096 0.00055495)
(60.4127 7.9693 0.0027222)
(61.7904 10.6631 0.001836)
(62.9911 6.9334 0.0010902)
(63.4464 5.0993 0.00078628)
(63.6154 3.7394 0.00060278)
(63.6317 2.7293 0.00044026)
(63.5891 1.9489 0.00029358)
(63.5356 1.3159 0.00021587)
(63.4932 0.76814 0.00056794)
(63.4832 0.25964 0.00051143)
(53.3154 6.2447 0.00062832)
(57.5494 8.8152 0.00059032)
(60.2289 6.4463 0.00030417)
(61.582 4.9167 0.00026501)
(62.2774 3.7437 0.0002394)
(62.6255 2.8108 0.00018806)
(62.7917 2.0427 0.00012694)
(62.868 1.3945 9.953e-05)
(62.901 0.81729 0.00049233)
(62.9197 0.27458 0.00047442)
(52.2755 2.4741 0.00041277)
(56.5771 4.7677 0.00043933)
(59.0317 4.7378 7.9274e-05)
(60.4647 4.0681 4.4644e-05)
(61.3022 3.3063 3.9105e-05)
(61.7956 2.5856 3.1724e-05)
(62.0785 1.9299 2.2801e-05)
(62.2413 1.3385 1.5796e-05)
(62.3324 0.79118 0.00044129)
(62.3737 0.26405 0.00044913)
(55.6884 1.2118 0.00042986)
(57.3447 2.7453 0.00042026)
(58.8362 3.1728 3.0599e-05)
(59.9247 3.0166 6.028e-06)
(60.6718 2.6199 5.0494e-06)
(61.171 2.1466 5.0274e-06)
(61.4925 1.6563 5.0389e-06)
(61.6925 1.1719 5.0559e-06)
(61.8115 0.70105 0.00042035)
(61.868 0.23535 0.0004312)
(57.3253 0.67275 0.00040879)
(58.0775 1.6703 0.00040388)
(58.9708 2.1313 2.2047e-05)
(59.7433 2.1953 6.304e-06)
(60.3344 2.0209 5.8472e-06)
(60.7623 1.7262 5.8281e-06)
(61.0604 1.3733 5.8227e-06)
(61.2539 0.99217 5.8234e-06)
(61.3721 0.5995 0.00040106)
(61.4304 0.20162 0.00040944)
(58.2942 0.4102 0.00038205)
(58.6711 1.0725 0.00037944)
(59.1972 1.4579 1.6821e-05)
(59.7145 1.5927 6.7904e-06)
(60.1498 1.5373 6.5677e-06)
(60.4868 1.3592 6.5424e-06)
(60.7348 1.1105 6.5222e-06)
(60.904 0.8182 6.5072e-06)
(61.009 0.49852 0.0003762)
(61.0606 0.16761 0.0003824)
(58.9056 0.26618 0.00034901)
(59.1093 0.71818 0.00034762)
(59.4203 1.0179 1.3555e-05)
(59.7543 1.1592 7.2116e-06)
(60.0581 1.1602 7.0919e-06)
(60.3057 1.0558 7.0586e-06)
(60.495 0.88106 7.0259e-06)
(60.6305 0.6596 6.9973e-06)
(60.716 0.40605 0.00034483)
(60.757 0.13694 0.00034921)
(59.314 0.17966 0.000309)
(59.4273 0.49504 0.00030828)
(59.6098 0.72166 1.1288e-05)
(59.8178 0.84547 7.3527e-06)
(60.0174 0.86921 7.2763e-06)
(60.1873 0.80941 7.2344e-06)
(60.321 0.68643 7.1914e-06)
(60.4189 0.52009 7.1519e-06)
(60.4826 0.32307 0.00030615)
(60.5131 0.10932 0.00030909)
(59.5958 0.12365 0.00026144)
(59.6578 0.34497 0.00026108)
(59.7609 0.51222 9.3666e-06)
(59.8827 0.61218 7.02e-06)
(60.0035 0.64122 6.958e-06)
(60.1106 0.6073 6.9071e-06)
(60.1963 0.52218 6.8556e-06)
(60.2596 0.39917 6.8083e-06)
(60.3016 0.24912 0.00025957)
(60.3214 0.084458 0.00026141)
(59.7906 0.083598 0.00020605)
(59.8224 0.23551 0.00020588)
(59.8746 0.35431 7.3457e-06)
(59.9381 0.42913 6.049e-06)
(60.0022 0.45481 5.9865e-06)
(60.0602 0.4356 5.9262e-06)
(60.1076 0.37837 5.868e-06)
(60.1432 0.29132 5.8166e-06)
(60.1667 0.18299 0.00020485)
(60.1768 0.062376 0.00020588)
(59.9185 0.051664 0.0001431)
(59.9308 0.14759 0.00014302)
(59.9512 0.22446 4.9948e-06)
(59.977 0.27389 4.3707e-06)
(60.0031 0.2925 4.3005e-06)
(60.0265 0.28189 4.2318e-06)
(60.046 0.24601 4.1695e-06)
(60.0609 0.19026 4.1177e-06)
(60.071 0.12058 0.00014233)
(60.0755 0.041538 0.00014281)
(59.9836 0.02471 1.4921e-07)
(59.9857 0.070413 1.1507e-07)
(59.99 0.10678 -7.1149e-05)
(59.9957 0.13047 -7.1357e-05)
(60.0014 0.13962 -7.1404e-05)
(60.0065 0.13474 -7.1449e-05)
(60.0106 0.11766 -7.1488e-05)
(60.0137 0.090925 -7.1518e-05)
(60.0162 0.057306 -2.1097e-07)
(60.0177 0.019527 -6.8438e-08)
)
;

boundaryField
{
    bump
    {
        type             noSlip;
    }
    outlet
    {
        type             zeroGradient;
    }
    inlet
    {
        type             fixedValue;
        value            uniform (60 0 0);
    }
    side1
    {
        type             empty;
    }
    side2
    {
        type             empty;
    }
    symmetry
    {
        type             symmetry;
    }
    top
    {
        type             symmetry;
    }
}

// ************************************************************************* //
