/*--------------------------------*- C++ -*----------------------------------*\\
| =========                 |                                                 |
| \\      /  F ield         | OpenFOAM: The Open Source CFD Toolbox           |
|  \\    /   O peration     | Version:  v1706                                 |
|   \\  /    A nd           | Web:      www.OpenFOAM.com                      |
|    \\/     M anipulation  |                                                 |
\\*---------------------------------------------------------------------------*/
FoamFile
{
    version     2.0;
    format      ascii;
    class       surfaceScalarField;
    location    "0.25";
    object      mdot_f;
}
// * * * * * * * * * * * * * * * * * * * * * * * * * * * * * * * * * * * * * //

dimensions      [1 0 -1 0 0 0 0]


internalField   nonuniform List<scalar>
906
(
-0.025002
0.018225
0.0038314
0.0029456
-0.0046125
-0.019422
-0.00096766
-0.030453
0.034182
0.019602
-0.023331
0.03534
-0.031927
-0.033866
0.005695
0.064675
-0.063829
-0.006541
0.002793
-0.065089
0.067991
-0.03873
0.036833
-0.0016081
0.0035056
-0.022674
0.015853
-0.03191
-0.069987
0.04339
-0.0089807
0.035577
-0.0021094
0.0018503
-0.069728
0.055558
-0.011042
0.013616
-0.058132
0.0159
-0.0056753
0.045333
-0.024153
-0.01762
0.0082318
0.033541
-0.02964
0.03528
-0.029793
0.046467
-0.011433
0.075515
-0.063917
0.0043012
0.00024527
0.07177
0.0034998
-0.0049748
-0.069984
0.021339
-0.014083
-0.0072555
-0.0029476
0.024286
0.014588
-0.021524
-0.0071473
0.036899
-0.019237
0.017002
-0.034663
0.039559
0.028574
-0.031235
0.038012
-0.021855
-0.029252
0.013095
0.041913
0.025703
-0.029604
0.032491
-0.0098153
-0.020668
0.01982
0.044238
-0.067632
0.052996
-0.0060322
-0.067549
-0.0021924
-0.0029998
0.0047207
0.018977
-0.020698
0.0056219
0.0026514
-0.011273
0.049389
-0.031659
0.024272
-0.042003
0.051541
0.011464
-0.050232
0.012249
0.011598
-0.040995
0.064114
0.012221
-0.02594
-0.041107
0.026052
-0.041026
-0.016841
0.0086292
0.044912
-0.0096956
-0.043846
0.035581
-0.0036735
-0.023278
0.0023544
0.037947
0.057974
-0.010707
0.036171
0.0097079
-0.019591
-0.0072075
0.017091
-0.0175
0.02493
0.0022775
-0.02321
-0.013881
-0.0036504
0.058305
0.0094599
0.02324
0.00017778
-0.030625
0.020887
0.019444
0.04703
0.0070317
-0.0075942
-0.041133
0.046512
0.015508
0.0060747
0.0027199
0.0026844
0.00291
-0.041216
-0.024382
0.00059053
-0.010075
-0.048387
0.026915
0.034737
0.0096372
0.0090293
0.04035
0.0019616
-0.013485
0.04179
0.0024532
-0.0022733
-0.0047339
0.0062196
0.041972
0.00086366
0.0085529
-0.039101
0.01206
0.042894
0.0073994
0.02166
0.0051654
0.043205
-0.0019705
-0.0464
0.039745
0.002253
0.0011262
0.043114
-0.0010352
0.039213
0.001658
0.00092956
0.042674
-0.00048956
0.038895
0.0012475
0.00041594
0.042545
-0.00028739
0.038965
0.00034543
0.00038787
0.042423
-0.00026562
0.039029
0.00032367
-6.2618e-05
0.042733
-0.00024756
0.0392
-0.00023318
-6.1105e-05
0.042621
0.00017234
0.039374
-0.00023576
-7.6546e-06
0.042971
-0.00034225
0.039701
-0.0003344
-1.7395e-05
-0.00010142
0.04309
0.039596
8.8028e-05
-0.069367
0.006475
0.065685
0.0054554
-0.066241
-0.0043032
-0.067623
0.0037106
0.0034677
-0.003778
-0.065931
0.0026818
-0.066837
-0.0644
-0.0037324
-0.065255
-0.0029231
0.063644
0.001729
0.068398
0.0073061
0.063532
0.0028956
0.062012
0.00048476
0.061103
0.00041932
0.060668
0.00014691
0.060196
0.00020613
0.060257
-0.00030869
0.060706
-0.00027661
0.060768
-0.00040406
0.060436
0.00023075
0.070797
-0.00024255
-0.00015738
0.039995
-0.00016585
0.043013
-0.00071186
0.060982
-0.06805
0.06859
0.0031713
-0.067395
0.0020264
-0.0020601
0.001405
-0.06674
-0.0024287
-0.066468
-0.0023202
-0.066039
-0.06585
-0.0017247
0.069547
0.010419
0.06408
0.0038581
0.064271
0.0020618
0.063689
0.0022408
0.063365
0.0015709
0.062938
0.00077259
0.062789
0.00047266
0.06311
-0.00055451
0.063541
-0.00066681
0.063194
1.2315e-05
0.062927
0.00035588
-0.00060187
0.063371
0.072771
0.074725
0.0053514
0.074412
0.0032091
0.072798
0.0020989
0.07218
0.0010373
0.071747
0.00057994
0.071568
0.00038408
0.071537
-0.00027772
0.071513
-0.00025248
0.070919
0.00018978
0.071295
-0.00014491
0.071548
-0.00096479
0.0056836
0.069381
0.057081
-0.077035
0.021804
0.0088487
0.039252
-0.070011
-0.0013404
-0.067971
0.0011309
-0.0674
0.0014562
-0.066798
0.0008026
-0.0010474
0.00063655
-0.066387
-0.0014128
-0.066374
-0.001596
-0.066285
-0.0011031
-0.066532
-0.00085334
-0.0661
0.065709
-0.066376
-0.00018631
0.065
-0.001015
0.064048
-0.0019718
0.063719
-0.0034034
0.061211
-0.004033
0.055139
-0.0053598
0.05021
-0.0026653
0.052613
0.0036718
0.05065
0.0046469
0.066432
0.01027
0.066997
0.0088952
0.071336
0.00608
0.071545
0.0036492
0.07057
0.0030364
0.071111
0.0017
0.071213
0.0014684
0.071425
0.00056075
0.071471
0.00042661
0.071666
-0.00074876
0.071803
-0.00080459
0.071556
0.00025922
0.071567
0.00034482
0.071683
-0.00071742
0.00042568
-0.00036798
0.071625
0.00029748
0.063499
0.00025288
0.04004
-0.00020623
0.043472
-0.00016157
0.060937
0.071394
-7.5238e-06
-0.0041194
0.042317
0.013491
0.048075
0.045797
0.037075
0.036134
0.031466
0.023071
0.021912
0.027333
0.03499
0.028004
0.034907
-0.070079
-0.0009889
-0.0687
-0.00024815
-0.06773
0.00048607
-0.067269
0.00034188
-0.066918
0.00028539
-0.00085942
-0.06623
0.00017096
-0.00058431
-0.066662
-0.00033389
-0.066625
-1.8275e-05
-0.066601
4.4896e-05
-0.066596
0.00021486
-0.06627
0.00041637
-0.066578
0.0661
-0.066587
0.00090375
0.06575
0.00016394
0.065238
-0.00050276
0.064923
-0.0016574
0.063727
-0.0022068
0.062532
-0.0028382
0.059656
-0.0024839
0.057736
-0.00074568
0.05707
0.0043379
0.060967
0.00075034
0.066295
0.0049418
0.070013
0.0051774
0.072067
0.0040257
0.072646
0.0030707
0.07361
0.0020723
0.073514
0.0017956
0.073757
0.0012255
0.074255
6.3079e-05
0.07523
-0.00054847
0.074537
-5.6205e-05
0.074239
-0.00050631
0.074718
-0.00021934
0.074409
0.0006535
0.073704
-1.2974e-05
0.074255
-0.00091833
0.00047848
-0.00013555
0.073912
0.00036284
0.071741
0.00016532
0.063697
-5.7234e-05
0.040263
-9.8482e-05
0.043514
4.0787e-05
0.060798
-0.00025263
0.071687
-0.074347
-0.00015753
0.074252
-0.0735
-0.00085454
-0.074404
-6.134e-05
-0.074469
-7.9227e-05
-0.07418
-0.00010009
-0.074304
-0.00012841
-0.074411
-0.00017093
-0.074459
0.0004322
-0.074599
0.0007204
-0.074829
0.0012667
-0.074927
0.0021974
-0.074587
0.0028685
0.0025345
-0.036548
-0.0028099
0.066885
-0.065932
-0.0059285
0.069795
0.0013915
0.071534
0.0017611
0.072316
0.0017522
0.073688
0.0014962
0.074691
0.0011946
0.074762
0.0011952
0.07519
0.00029214
0.075736
-0.00011418
0.075653
-8.7125e-05
0.075589
-6.5383e-05
0.075539
-4.9889e-05
0.075499
-3.8862e-05
0.075468
-3.0396e-05
0.074637
-2.3426e-05
0.074499
-1.9749e-05
-0.00013127
0.00057992
-0.066678
-0.00012823
-0.066665
-9.9496e-05
-0.066653
-5.4285e-05
-0.066646
-5.7406e-06
-0.066644
0.00037319
-0.066649
0.0004529
-0.066657
0.00053291
-0.066667
0.066531
0.00067748
-0.066676
0.06738
5.4784e-05
0.067448
9.5913e-05
0.066783
0.00016288
0.065796
-0.00067082
0.064697
-0.0011077
0.062618
-0.00075915
0.060865
-0.00073117
0.060332
-0.00021264
0.063149
0.0015208
0.063232
0.00066754
0.066021
0.0021525
0.068976
0.0022231
0.071195
0.0018068
0.073022
0.0012431
0.073741
0.0013538
0.074757
0.00077939
0.076062
-7.9968e-05
0.076191
-6.528e-05
0.075689
-4.7262e-05
0.075664
-3.0549e-05
0.075175
-1.7399e-05
0.074965
-9.9312e-06
0.075627
-8.5173e-06
0.075621
-6.2859e-06
0.074704
-1.836e-06
0.074569
-4.6767e-08
0.00040738
-0.00050487
0.074666
-1.942e-06
0.074321
-4.961e-06
0.071744
-2.0879e-05
0.063713
-5.123e-05
0.040293
-8.7943e-05
0.04355
-0.00060762
0.061317
-0.00049392
0.071573
-0.0005614
0.07432
0.073954
-1.6913e-05
-0.0011654
0.025863
0.014363
0.032547
0.019966
0.031472
0.02277
0.028662
0.018572
0.026109
0.023296
0.030266
0.022067
0.029232
0.02276
0.031967
0.0088889
0.035938
-0.0022405
0.043096
-0.0032922
0.04529
0.050799
-0.001095
-0.068064
-0.00047402
-0.06798
-0.00033222
-0.067456
-3.8286e-05
-0.067141
2.6886e-05
-0.066775
-8.0866e-05
-0.066817
0.00021305
0.00045195
-0.066689
-0.017864
0.053134
0.015529
-0.008819
-0.015553
0.0068594
-0.0080785
0.0020828
-0.013232
-0.010118
-0.028713
-0.0425
0.046013
-0.018588
0.021612
-0.03441
-0.026222
-0.00068806
-0.0060223
-0.042349
-0.018379
-0.023566
-0.036607
-0.027696
-0.028558
-0.036703
-0.033343
-0.0251
-0.016038
0.040547
-0.01913
0.03903
-0.020057
0.030159
-0.018652
0.028861
-0.01774
0.025197
-0.013374
0.024296
-0.0082782
0.026376
-0.0036803
0.02795
0.030415
0.032886
0.0026163
-0.026892
-0.026185
-0.0067844
-0.01988
-0.011765
-0.032531
-0.023955
0.039092
-0.023645
-0.04596
0.0035328
0.032496
-0.026746
-0.027297
0.036756
-0.021372
0.036257
-0.026246
0.029744
-0.020956
-0.026107
0.0052932
0.027738
0.026332
-0.018427
-0.02163
0.0091794
0.024063
0.01217
0.023385
-0.00057059
-0.015737
0.022508
0.020729
-0.016605
0.017483
0.0048573
0.018636
0.01129
0.016953
0.015413
-0.020837
0.0090677
0.0032091
0.0082791
0.013268
0.0068942
0.0078446
0.067358
-0.06668
0.067413
0.067508
0.067671
0.067001
0.065893
0.065134
0.064403
0.06419
0.065711
0.066378
0.068531
0.070754
0.072561
0.073804
0.075158
0.075937
0.075857
0.075792
0.075745
0.075714
0.075697
0.075687
0.075678
0.075672
0.07567
0.07567
0.075165
0.00021949
3.734e-06
-1.0609e-05
-9.8659e-06
-2.4185e-05
-5.2808e-05
-6.977e-05
-7.6051e-05
-4.9813e-05
-3.683e-05
-0.00074114
-0.075379
-0.075395
-0.075415
-0.075439
-0.075469
-0.075508
-0.075558
-0.075623
-0.07571
-0.075825
-0.075533
-0.074337
-0.073143
-0.071647
-0.069894
-0.068133
-0.066742
-0.07267
-0.057142
-0.058237
-0.064269
-0.066461
-0.066935
-0.067267
-0.067306
-0.067279
-0.06736
-0.067147
-0.066695
-2.8048e-05
-5.0309e-05
-6.1971e-05
-6.0681e-05
-4.7479e-05
-2.6577e-05
-4.0404e-06
1.3936e-05
2.3267e-05
2.2594e-05
1.3569e-05
0.015762
-0.0079178
0.02483
0.037925
0.02811
0.031643
0.0076876
-0.0040773
-0.0019945
0.0042253
0.001952
-0.021379
-0.020788
-0.023598
0.0010236
)
;

boundaryField
{
    bottom
    {
        type             calculated;
        value            uniform 0;
    }
    inlet
    {
        type             calculated;
        value            nonuniform List<scalar>
12
(
-0.066667
-0.066667
-0.066667
-0.066667
-0.066667
-0.066667
-0.066667
-0.066667
-0.066667
-0.066667
-0.066667
-0.066667
)
;
    }
    object
    {
        type             calculated;
        value            uniform 0;
    }
    outlet
    {
        type             calculated;
        value            nonuniform List<scalar>
12
(
0.074944
0.074633
0.074653
0.074298
0.071542
0.061325
0.043583
0.040344
0.063738
0.071747
0.074336
0.07488
)
;
    }
    side1
    {
        type             calculated;
        value            uniform 0;
    }
    side2
    {
        type             calculated;
        value            uniform 0;
    }
    top
    {
        type             calculated;
        value            uniform 0;
    }
}

// ************************************************************************* //
