/*--------------------------------*- C++ -*----------------------------------*\\
| =========                 |                                                 |
| \\      /  F ield         | OpenFOAM: The Open Source CFD Toolbox           |
|  \\    /   O peration     | Version:  v1706                                 |
|   \\  /    A nd           | Web:      www.OpenFOAM.com                      |
|    \\/     M anipulation  |                                                 |
\\*---------------------------------------------------------------------------*/
FoamFile
{
    version     2.0;
    format      ascii;
    class       volScalarField;
    location    "0.25";
    object      p;
}
// * * * * * * * * * * * * * * * * * * * * * * * * * * * * * * * * * * * * * //

dimensions      [0 2 -2 0 0 0 0]


internalField   nonuniform List<scalar>
479
(
-14.7235
-22.8775
-20.0634
-11.2383
14.6544
15.3172
1.6908
0.56623
10.1736
11.2252
-7.0836
-6.4531
19.1089
16.9175
15.2844
-4.124
-4.0466
-3.4272
49.8844
28.2213
34.0333
-12.6322
-10.6341
-2.5085
-9.3301
-20.1567
8.4079
8.244
9.9507
-8.8205
-14.9641
-10.5733
-11.2001
-8.658
-6.4875
-9.6865
-5.7421
-10.525
-10.778
-11.2408
-7.0614
-7.1594
-9.7898
14.3857
15.6052
16.9335
-7.8933
14.3608
10.0496
14.4362
6.0455
11.8839
0.26993
-7.2743
-23.6198
-16.048
6.0745
-1.6426
17.3596
17.2325
-13.9286
-35.4666
-30.0995
-10.1208
-23.4874
-3.0139
0.3894
-2.9114
-4.9861
0.83683
1.1174
0.43049
0.57196
0.32436
0.4004
0.24936
0.37802
0.16174
0.26631
0.083839
0.16544
-0.0041985
0.070556
-0.017754
0.033518
-0.036855
-0.012322
15.0981
14.5007
14.3846
13.9815
13.9001
14.1466
13.7985
-4.0723
-2.3963
-0.66158
-0.18106
-0.14763
-0.098975
-0.054534
-0.024747
-0.050383
-0.022712
-0.051594
-6.4298
-0.0040604
-0.021336
-0.0067147
13.9256
13.5902
13.3806
13.5899
13.6543
13.5628
-6.2004
-0.73088
0.32097
0.077116
-0.025079
0.085308
0.083519
0.084663
0.051296
0.0091428
-0.056394
-0.0021425
-4.5692
-3.4205
-2.0929
-1.193
-0.77102
-0.52998
-0.36644
-0.23993
-0.18024
-0.13928
-0.13465
-0.06992
14.4567
13.2062
12.507
13.2009
13.1495
13.1
13.0667
13.0474
13.2528
13.3969
13.4503
13.4094
13.3024
13.3694
13.4554
13.5441
13.5713
13.3054
12.0173
8.7275
2.8064
-2.4497
-5.5612
-5.1077
-2.4246
-0.91582
-0.54731
-0.44377
-0.2842
-0.17736
-0.090992
-0.070682
-0.094639
-0.10553
-0.04014
-0.0084232
0.049909
0.040782
0.013301
0.020522
-0.06202
16.531
16.1761
15.4196
14.726
14.0008
11.6568
9.6215
11.9305
12.3312
12.5766
12.7321
12.8299
12.8913
13.0374
13.1778
13.2806
13.3266
13.3131
13.2559
13.1798
13.1719
13.148
13.0856
12.9375
12.6036
11.883
10.3865
7.6703
3.6649
-0.27629
-2.7317
-3.0716
-2.0233
-1.004
-0.54147
-0.37886
-0.25365
-0.14645
-0.064661
-0.033882
-0.034558
-0.026687
0.0048974
0.021334
0.022977
-0.00086266
0.063365
0.082846
0.043158
0.01927
-0.05259
-0.039637
-0.06216
-0.08124
-0.13084
-0.1777
-0.23823
-0.33647
-0.49004
-0.6932
-0.99197
-1.4847
-2.2846
-3.2776
-10.5539
-1.1592
-2.5381
-3.0614
-2.7825
-2.1772
-1.5935
-1.158
-0.8554
-0.63532
-0.46683
-0.34319
-0.25558
-0.19105
-0.14227
-0.10886
-0.087734
12.9264
13.0332
13.1371
13.2166
13.258
13.2588
13.2282
13.1822
13.1392
13.1117
13.0589
12.9618
12.7874
12.4779
11.9383
11.0111
9.4882
7.1935
4.1763
1.1256
-1.002
-1.8082
-1.6077
-1.0848
-0.71227
-0.52585
-0.40314
-0.29495
-0.20934
-0.15335
-0.12114
-0.098583
-0.073206
-0.050225
-0.03972
-0.034542
0.016519
-0.010926
0.046915
0.089595
0.059522
0.047524
-0.017371
-0.03108
-0.077071
18.3186
18.0013
17.5093
16.5192
15.1392
12.2163
9.4762
8.0389
7.4118
6.3226
6.225
5.761
11.038
11.7291
12.1768
12.4686
12.6559
12.773
12.8396
2.859
-14.0928
-29.811
-20.6624
-13.8684
-12.2856
3.6465
0.10986
4.3172
-2.0093
-17.7773
-9.0518
-4.8271
-1.6366
1.1134
4.1718
5.4729
8.4606
12.4245
16.3824
18.9066
20.3627
21.0562
21.0615
20.3696
22.0987
22.6744
22.0015
-28.429
-13.3988
1.5996
-9.5341
-23.7676
-1.5079
-5.726
2.641
-1.4358
-7.1925
5.8119
0.5696
23.8195
11.421
8.1734
25.2388
24.4537
27.3659
17.7359
22.1441
18.8182
30.7466
30.4003
26.809
17.0908
39.4221
39.1603
33.2151
13.1139
13.0726
12.9941
12.8566
12.6223
12.2309
11.5932
10.5902
9.0861
7.0061
4.4024
1.7857
-0.19893
-1.1899
-1.3179
-1.0293
-0.72017
-0.51949
-0.38727
-0.27947
-0.19116
-0.1281
-0.089214
-0.065215
-0.044685
-0.026592
-0.016585
-0.013704
-0.0092945
-0.025735
0.014746
-0.0034823
0.041958
0.074504
0.050888
0.033004
-0.036787
-0.043686
-0.061042
-0.044672
-0.06571
-0.083461
-0.10775
-0.14436
-0.19583
-0.26711
-0.36636
-0.50236
-0.68161
-0.91381
-1.2195
-1.6167
-2.0677
-2.4162
-2.3751
-1.6147
0.064764
2.5261
5.2366
7.5905
9.3095
10.5377
11.3855
11.9525
12.3226
12.56
12.7077
12.7914
12.8248
12.8662
12.9404
13.0318
13.1214
13.1915
13.231
13.2372
13.217
13.1829
13.1498
13.13
49.6702
16.1765
-32.3072
-63.592
-73.5464
-60.9597
-45.6591
-36.7823
-34.9827
-39.0938
-46.9555
-51.4183
-49.5595
-11.8546
56.4436
56.7619
1.8255
-16.6723
)
;

boundaryField
{
    bottom
    {
        type             symmetry;
    }
    inlet
    {
        type             zeroGradient;
    }
    object
    {
        type             zeroGradient;
    }
    outlet
    {
        type             fixedValue;
        value            uniform 0;
    }
    side1
    {
        type             empty;
    }
    side2
    {
        type             empty;
    }
    top
    {
        type             symmetry;
    }
}

// ************************************************************************* //
