/*--------------------------------*- C++ -*----------------------------------*\\
| =========                 |                                                 |
| \\      /  F ield         | OpenFOAM: The Open Source CFD Toolbox           |
|  \\    /   O peration     | Version:  v1706                                 |
|   \\  /    A nd           | Web:      www.OpenFOAM.com                      |
|    \\/     M anipulation  |                                                 |
\\*---------------------------------------------------------------------------*/
FoamFile
{
    version     2.0;
    format      ascii;
    class       volVectorField;
    location    "0.25";
    object      U;
}
// * * * * * * * * * * * * * * * * * * * * * * * * * * * * * * * * * * * * * //

dimensions      [0 1 -1 0 0 0 0]


internalField   nonuniform List<vector>
479
(
(5.412 -1.7993 5.2199e-07)
(6.9999 -1.4501 5.1785e-07)
(10.5723 -0.084447 4.3636e-07)
(11.8999 -0.23775 5.2103e-07)
(9.8303 0.20572 3.7475e-07)
(9.7251 0.091578 2.3426e-07)
(5.5296 -0.12525 1.1255e-06)
(5.4276 -0.27959 1.1444e-06)
(10.3073 -0.4477 7.4912e-06)
(10.2191 -0.3536 8.4361e-06)
(11.7886 -0.27163 2.3449e-05)
(11.7124 -0.037751 2.218e-05)
(9.3476 0.38173 3.9066e-07)
(9.5723 0.40299 5.1051e-07)
(9.8001 0.4111 7.9704e-07)
(11.6042 -0.01801 6.6203e-05)
(11.5659 0.050077 6.5743e-05)
(11.5827 -0.21077 7.7664e-05)
(6.3043 3.2174 2.4866e-07)
(8.6191 5.6635 2.598e-07)
(6.7534 1.8954 2.6156e-07)
(12.0645 -0.98428 2.02e-06)
(11.8868 -0.86406 4.8463e-06)
(10.9786 -3.0085 2.4699e-07)
(11.6754 -2.4711 4.461e-07)
(12.26 -1.2337 4.0693e-07)
(10.515 -0.42635 7.4255e-05)
(10.5374 -0.24334 0.0002158)
(10.3633 -0.2411 0.00019036)
(5.0538 1.8255 2.552e-06)
(2.017 1.8361 1.9051e-06)
(11.8019 -0.048105 7.0846e-06)
(11.8097 0.036997 1.061e-05)
(11.8483 -0.56864 1.3255e-05)
(3.0868 -1.0648 8.6703e-07)
(11.794 -0.020242 6.9135e-07)
(11.6491 0.62676 8.3821e-07)
(11.7892 1.0187 6.0492e-07)
(11.1236 0.564 6.1735e-06)
(8.7843 1.2178 3.7853e-06)
(7.8264 1.2719 3.6516e-06)
(10.8014 0.57016 8.068e-06)
(11.6541 0.20803 1.0587e-05)
(9.5514 2.0884 4.9824e-07)
(9.6112 2.4666 4.8326e-07)
(9.263 1.9032 4.7726e-07)
(11.5014 -0.33021 6.8039e-07)
(9.8492 1.4689 5.613e-07)
(10.0734 1.8888 5.3259e-07)
(9.9399 0.7732 1.2581e-06)
(10.7503 1.3408 1.0002e-06)
(10.3314 1.0234 1.2442e-06)
(11.3132 1.0614 9.9217e-07)
(11.6279 1.4854 6.7303e-07)
(12.2594 -0.73507 4.4115e-07)
(12.2825 1.3432 4.4053e-07)
(10.4287 2.4223 5.0344e-07)
(11.1525 1.9871 6.5465e-07)
(9.5637 0.81197 6.2997e-07)
(9.5518 1.1771 5.6452e-07)
(10.5675 -0.66637 5.0849e-07)
(8.3572 -0.69853 4.944e-07)
(-1.7025 -0.31014 9.215e-07)
(9.6248 -1.075 5.1361e-07)
(-2.1944 -0.69444 1.1534e-06)
(3.417 0.49754 1.9034e-06)
(5.9981 0.35467 2.6984e-06)
(6.5917 0.96914 3.3253e-06)
(7.6926 -0.87983 5.9498e-07)
(6.1995 0.15746 2.7637e-06)
(5.7017 -0.035735 1.3534e-06)
(6.3176 0.10886 2.8718e-06)
(5.7889 -0.00013612 1.3952e-06)
(6.3692 0.070864 2.8942e-06)
(5.8252 0.029282 1.4288e-06)
(6.4039 0.036895 2.8939e-06)
(5.8456 0.043005 1.441e-06)
(6.4343 0.014103 2.8869e-06)
(5.8688 0.048947 1.4502e-06)
(6.4614 0.0006644 2.8717e-06)
(5.9032 0.048251 1.4388e-06)
(6.4667 -0.0083559 2.8307e-06)
(5.933 0.043556 1.4258e-06)
(6.4912 -0.011956 2.8159e-06)
(5.9695 0.041618 1.4097e-06)
(6.4998 -0.014314 2.7758e-06)
(5.9749 0.044537 1.3958e-06)
(9.7508 -0.084335 2.2046e-07)
(9.8349 0.029073 2.2413e-07)
(9.842 -0.068318 2.2159e-07)
(9.9 0.0057623 2.2438e-07)
(9.9042 -0.054274 2.2333e-07)
(9.8855 0.10831 2.518e-07)
(9.9273 0.055797 2.2521e-07)
(10.1193 0.57748 7.5139e-06)
(9.3412 0.41366 6.725e-06)
(9.2221 0.28589 6.6871e-06)
(9.1959 0.21037 6.6449e-06)
(9.1919 0.15592 6.5975e-06)
(9.1853 0.11627 6.5458e-06)
(9.1781 0.089215 6.4902e-06)
(9.1822 0.072185 6.4741e-06)
(9.1782 0.062476 6.4403e-06)
(9.185 0.055494 6.4275e-06)
(9.1807 0.050194 6.3531e-06)
(11.5569 0.14968 1.6994e-05)
(5.992 0.043512 1.3846e-06)
(6.5093 -0.013414 2.736e-06)
(9.1924 0.047368 6.3752e-06)
(9.8903 -0.15441 2.1594e-07)
(9.9349 -0.1054 2.1749e-07)
(9.9632 -0.070452 2.1926e-07)
(9.9446 -0.039657 2.2533e-07)
(9.9416 -0.0036858 2.2641e-07)
(9.9558 0.027779 2.2233e-07)
(10.1891 -0.50798 6.5917e-07)
(9.8534 -0.35354 6.6057e-07)
(9.679 -0.24972 6.8719e-07)
(9.603 -0.18783 7.0931e-07)
(9.5326 -0.14225 7.2861e-07)
(9.5069 -0.10803 7.3879e-07)
(9.4868 -0.084815 7.497e-07)
(9.4982 -0.070491 7.6804e-07)
(9.5147 -0.061649 7.9056e-07)
(9.5215 -0.054426 7.9927e-07)
(9.5194 -0.048786 8.0896e-07)
(9.5293 -0.045831 8.3172e-07)
(11.3797 0.21643 1.6848e-05)
(11.0956 0.21914 1.5841e-05)
(10.9306 0.1689 1.5406e-05)
(10.8601 0.11883 1.5249e-05)
(10.8196 0.083147 1.5091e-05)
(10.7962 0.057465 1.4958e-05)
(10.7761 0.038579 1.4814e-05)
(10.7661 0.024681 1.4847e-05)
(10.7598 0.016193 1.4861e-05)
(10.7547 0.0089064 1.4724e-05)
(10.7449 0.0051515 1.4642e-05)
(10.7447 0.0019996 1.5039e-05)
(9.8119 -0.22421 2.147e-07)
(9.976 -0.39933 4.4364e-07)
(10.0322 -0.50945 4.4171e-07)
(9.9698 -0.29374 2.5436e-07)
(9.9811 -0.19723 2.0708e-07)
(9.9892 -0.131 2.0835e-07)
(9.9943 -0.085484 2.0987e-07)
(9.9974 -0.054793 2.1156e-07)
(9.9804 -0.046243 2.2114e-07)
(9.9698 -0.028147 2.2741e-07)
(9.9679 -0.0064447 2.2869e-07)
(9.9751 0.013094 2.2432e-07)
(9.9881 0.024911 2.1698e-07)
(9.9803 0.04566 2.2689e-07)
(9.9714 0.081498 3.3675e-07)
(9.9652 0.14245 7.516e-07)
(9.973 0.24353 1.6103e-06)
(10.0253 0.41495 3.2253e-06)
(10.2027 0.65108 4.1552e-06)
(10.6076 0.96109 3.806e-06)
(11.1213 0.72533 3.6359e-06)
(11.5139 0.4364 2.6667e-06)
(11.5822 0.11579 2.4008e-06)
(11.2497 -0.11007 2.1512e-06)
(11.0003 -0.084811 2.0593e-06)
(10.8843 -0.03607 2.0061e-06)
(10.8261 -0.013696 1.9522e-06)
(10.7878 -0.00089785 1.9125e-06)
(10.7627 0.012772 1.8872e-06)
(10.746 0.022314 1.8677e-06)
(10.7457 0.028658 1.9925e-06)
(10.7512 0.032359 2.1532e-06)
(10.7545 0.034929 2.1425e-06)
(10.7485 0.033599 2.1269e-06)
(10.7507 0.032567 2.2834e-06)
(10.7535 0.032914 2.3946e-06)
(9.5383 -0.043272 8.5105e-07)
(6.0165 0.04074 1.3598e-06)
(6.5176 -0.013058 2.687e-06)
(9.1925 0.044112 6.3123e-06)
(10.7413 -0.0012891 1.4896e-05)
(9.5913 0.10959 2.3205e-07)
(9.6355 -0.11348 2.1919e-07)
(9.7148 -0.27441 2.1429e-07)
(9.7676 -0.43015 2.8674e-07)
(9.8515 -0.60396 3.1592e-07)
(10.0564 -0.64453 3.9399e-07)
(10.2981 -0.61217 4.3905e-06)
(10.1307 -0.26104 3.0031e-06)
(10.0782 -0.18219 7.0895e-07)
(10.0475 -0.12233 1.9937e-07)
(10.0282 -0.079628 2.0042e-07)
(10.0158 -0.050844 2.0169e-07)
(10.008 -0.031482 2.0311e-07)
(9.9989 -0.034089 2.1339e-07)
(9.9906 -0.029407 2.2314e-07)
(9.9852 -0.019054 2.2955e-07)
(9.9842 -0.0061224 2.3095e-07)
(9.9876 0.0056664 2.2657e-07)
(9.9938 0.013173 2.1899e-07)
(10.0007 0.014969 2.1112e-07)
(10.0023 0.027084 2.0961e-07)
(10.0064 0.047285 9.9775e-07)
(10.0165 0.080074 4.0561e-06)
(10.0389 0.13166 8.6865e-06)
(10.0873 0.21146 1.5407e-05)
(10.1838 0.32711 2.2e-05)
(10.3718 0.47031 2.4196e-05)
(10.6767 0.59064 2.2772e-05)
(11.0543 0.53312 2.1141e-05)
(11.3574 0.35788 1.8329e-05)
(11.4727 0.1341 1.6313e-05)
(11.4134 -0.028835 1.5056e-05)
(11.3044 -0.069913 1.4305e-05)
(11.2255 -0.063154 1.369e-05)
(11.1899 -0.055181 1.3302e-05)
(11.1701 -0.050786 1.2957e-05)
(11.1575 -0.04544 1.275e-05)
(11.1482 -0.03975 1.5046e-05)
(11.1443 -0.034497 1.5169e-05)
(11.1447 -0.030284 1.7586e-05)
(11.1448 -0.028465 1.8574e-05)
(11.143 -0.028515 1.8394e-05)
(11.1425 -0.027444 1.8429e-05)
(11.1442 -0.025778 2.3868e-05)
(11.1457 -0.024871 2.4723e-05)
(10.7586 0.033333 2.5486e-06)
(9.5498 -0.039633 8.6917e-07)
(6.0335 0.03901 1.3357e-06)
(6.5229 -0.01619 2.6313e-06)
(9.1875 0.040234 6.219e-06)
(10.7372 -0.0030386 1.49e-05)
(11.1543 0.019276 5.9579e-05)
(11.1582 0.020245 5.9189e-05)
(11.1616 0.022216 5.5275e-05)
(11.1667 0.025298 5.5419e-05)
(11.1729 0.02793 5.5512e-05)
(11.1807 0.033327 5.5642e-05)
(11.1898 0.040491 5.5583e-05)
(11.203 0.050167 5.539e-05)
(11.2227 0.061197 5.6066e-05)
(11.2496 0.074201 5.6846e-05)
(11.2916 0.088917 5.7876e-05)
(11.361 0.1015 5.9512e-05)
(11.4589 0.095509 6.1854e-05)
(11.9242 1.4944 4.2671e-07)
(11.3764 -0.18587 0.00019511)
(11.4638 -0.086966 0.00021323)
(11.4759 -0.011245 0.00023018)
(11.4367 0.033237 0.00024691)
(11.3826 0.049135 0.00026089)
(11.3356 0.047095 0.00027517)
(11.3015 0.039077 0.0002909)
(11.2768 0.030525 0.00030774)
(11.2581 0.022711 0.0003254)
(11.244 0.015699 0.00034425)
(11.2333 0.010161 0.00036289)
(11.2252 0.006224 0.00038133)
(11.2187 0.0033731 0.00039959)
(11.2135 0.00066279 0.00041765)
(11.2095 -0.0011509 0.0004355)
(11.2061 -0.0027883 0.00045331)
(10.0032 -0.018106 2.0467e-07)
(9.9996 -0.019755 2.1537e-07)
(9.9964 -0.01729 2.2534e-07)
(9.9943 -0.011607 2.3183e-07)
(9.9938 -0.0044127 2.3323e-07)
(9.9951 0.0021946 2.2879e-07)
(9.9975 0.0065614 2.2105e-07)
(10.0002 0.0078359 2.1278e-07)
(10.0024 0.0061334 4.3276e-05)
(10.0065 0.011566 6.3722e-05)
(10.0139 0.020454 8.4447e-05)
(10.0273 0.034848 0.00010513)
(10.0507 0.057136 0.00012589)
(10.0914 0.090551 0.00014725)
(10.1601 0.13918 0.00016952)
(10.2739 0.20338 0.00019312)
(10.452 0.27271 0.00021819)
(10.7042 0.3314 0.00022951)
(10.9829 0.30171 0.00025241)
(11.224 0.21391 0.00025948)
(11.3576 0.09729 0.00026452)
(11.3816 0.0083886 0.00027231)
(11.3463 -0.026344 0.00028219)
(11.3048 -0.027082 0.00029442)
(11.2785 -0.020292 0.00030679)
(11.2639 -0.014586 0.00032092)
(11.2544 -0.0086433 0.00033938)
(11.2467 -0.002579 0.0003579)
(11.2414 0.0031768 0.00037633)
(11.2385 0.0076408 0.00039458)
(11.2372 0.010299 0.00041275)
(11.2354 0.011648 0.00042734)
(11.2343 0.013674 0.00044521)
(11.2336 0.015454 0.0004629)
(11.2334 0.016813 0.0004806)
(11.233 0.017579 0.0005206)
(11.1472 -0.02451 4.9174e-05)
(10.7606 0.033542 2.4303e-05)
(9.5542 -0.035869 2.2622e-05)
(6.0396 0.039808 2.2989e-05)
(6.5296 -0.017574 2.4258e-05)
(9.1982 0.037288 2.8061e-05)
(10.7359 -0.0050711 3.6658e-05)
(11.1481 0.018059 8.3897e-05)
(11.2032 -0.0043199 0.00049265)
(9.4008 0.11182 2.3058e-07)
(9.4213 -0.14547 2.1788e-07)
(9.4842 -0.34658 2.142e-07)
(9.5747 -0.56055 2.5738e-07)
(9.7207 -0.79955 2.8484e-07)
(10.015 -0.87346 3.5495e-07)
(10.2938 -0.85086 2.5492e-06)
(10.4868 -0.57585 2.9588e-05)
(10.5292 -0.76826 1.6219e-05)
(10.6776 -0.64416 2.9623e-05)
(10.7434 -0.41586 8.5944e-05)
(10.7756 -0.25192 0.00025202)
(10.2307 -0.17413 0.00016755)
(10.1462 -0.12169 0.00014621)
(10.0907 -0.083121 0.00012547)
(10.0541 -0.05471 0.00010564)
(10.0304 -0.035122 8.5322e-05)
(10.0152 -0.021827 6.4593e-05)
(10.006 -0.012663 4.3478e-05)
(11.0383 -0.24982 0.00022976)
(6.8227 1.8078 2.6555e-06)
(2.6895 1.2123 1.1733e-06)
(5.1532 1.9527 1.925e-06)
(8.7699 1.1954 3.0726e-06)
(11.2325 0.54383 5.21e-06)
(10.9643 -0.47241 6.7725e-05)
(11.2502 -0.2975 0.00015833)
(10.6437 2.9505 3.844e-07)
(11.4642 -0.40458 6.9783e-05)
(8.2237 1.2534 2.3163e-06)
(10.9701 0.61369 3.7594e-06)
(11.7267 -0.57935 1.9929e-05)
(11.399 -0.63482 3.216e-05)
(11.1745 -0.53199 5.0045e-05)
(10.8644 -0.71865 2.4509e-05)
(10.7012 -0.94641 1.1114e-05)
(10.3957 -1.1422 1.6367e-06)
(10.0019 -1.2142 3.2022e-07)
(9.5775 -1.1122 2.6671e-07)
(9.3101 -0.80998 2.4273e-07)
(9.1589 -0.47037 2.1477e-07)
(9.0812 -0.14192 2.2185e-07)
(9.1196 0.24792 2.6801e-07)
(9.1653 0.68319 4.0146e-07)
(8.865 3.3096 3.4526e-07)
(8.3603 2.2661 3.3509e-07)
(8.983 1.1823 3.7798e-07)
(6.7671 0.74721 1.1883e-06)
(10.301 0.77467 1.5489e-06)
(11.0823 -0.82746 1.8198e-05)
(11.6776 0.36171 2.4529e-06)
(12.0999 0.86545 9.6339e-07)
(11.3661 -0.93242 1.2669e-05)
(11.6936 -1.0004 8.1977e-06)
(10.9482 -1.1457 7.5408e-06)
(11.3102 -1.3758 4.6792e-06)
(11.7024 -1.58 2.9181e-06)
(10.6335 -1.4923 1.0829e-06)
(11.0738 -1.9364 7.0131e-07)
(8.7779 0.45402 2.7722e-07)
(10.0794 -1.7023 2.9319e-07)
(10.3835 -2.3645 2.6931e-07)
(8.5814 -0.07518 2.2956e-07)
(8.619 -0.61838 2.1758e-07)
(8.2316 0.90159 2.7465e-07)
(9.3894 -1.6297 2.5298e-07)
(8.8794 -1.2159 2.3335e-07)
(9.2445 -2.424 2.4137e-07)
(7.7446 0.091592 2.2826e-07)
(7.8483 -0.8775 2.1847e-07)
(8.2709 -1.8552 2.2724e-07)
(8.7636 -3.9665 2.3079e-07)
(6.1528 0.46677 2.2704e-07)
(6.1909 -1.5095 2.1882e-07)
(6.7871 -3.1587 2.2266e-07)
(10.0037 0.0023544 4.3934e-05)
(10.0097 0.004325 6.4971e-05)
(10.0205 0.0075653 8.5875e-05)
(10.039 0.012848 0.00010648)
(10.0697 0.020864 0.00012671)
(10.1197 0.032462 0.00014752)
(10.199 0.048566 0.00016972)
(10.3189 0.068452 0.00019345)
(10.4883 0.088202 0.00021914)
(10.709 0.10413 0.00024525)
(10.9488 0.09852 0.00027162)
(11.1592 0.075236 0.00029673)
(11.2936 0.042093 0.00031889)
(11.3433 0.014477 0.00033892)
(11.336 0.00082328 0.0003578)
(11.3094 -0.0022779 0.00037536)
(11.2871 -0.0021001 0.00039294)
(11.2729 -0.0023364 0.000411)
(11.263 -0.0029734 0.00042893)
(11.2552 -0.0035885 0.00044669)
(11.2494 -0.0043267 0.00046435)
(11.2458 -0.0053777 0.00048187)
(11.2439 -0.0067578 0.00049929)
(11.2428 -0.0082725 0.00051653)
(11.2418 -0.009637 0.00053355)
(11.2412 -0.010843 0.00055049)
(11.241 -0.012064 0.00056723)
(11.2408 -0.01315 0.00060551)
(11.2415 -0.014056 0.00060061)
(11.232 0.018272 0.00051633)
(11.1503 -0.024245 2.7336e-05)
(10.762 0.033802 2.3548e-06)
(9.5607 -0.033194 6.7569e-07)
(6.0516 0.039944 1.0465e-06)
(6.5374 -0.019429 2.2845e-06)
(9.1987 0.034091 6.0765e-06)
(10.7313 -0.0073164 1.4711e-05)
(11.1447 0.017408 6.1781e-05)
(11.1979 -0.0045159 0.00048863)
(11.1949 0.0073545 0.00059932)
(11.1991 0.0066161 0.00060412)
(11.202 0.0061798 0.00056571)
(11.2051 0.005939 0.00054893)
(11.209 0.0058263 0.00053203)
(11.214 0.0058883 0.00051503)
(11.2203 0.0060852 0.00049786)
(11.2287 0.0065697 0.00048053)
(11.2398 0.0075327 0.00046304)
(11.2543 0.0089876 0.00044538)
(11.2731 0.010887 0.0004276)
(11.2974 0.013099 0.00041051)
(11.329 0.014527 0.00039481)
(11.3667 0.013195 0.00037828)
(11.4018 0.0049121 0.00036164)
(11.4147 -0.013807 0.00034453)
(11.3782 -0.040786 0.00032573)
(11.2708 -0.069133 0.00030123)
(11.0848 -0.11521 0.00027593)
(10.825 -0.061831 0.00024672)
(10.5981 -0.062959 0.00020459)
(10.4214 -0.062561 0.00018025)
(10.2839 -0.053545 0.0001624)
(10.1837 -0.040833 0.00014421)
(10.1147 -0.029153 0.00012564)
(10.0684 -0.019791 0.00010638)
(10.0383 -0.012869 8.6329e-05)
(10.0191 -0.0080217 6.5686e-05)
(10.0075 -0.0046026 4.4539e-05)
(10.0017 -0.0021007 6.4042e-07)
(10.0013 -0.0058227 2.3503e-07)
(10.0007 -0.0083537 -2.1727e-05)
(9.9999 -0.0091205 -2.1732e-05)
(9.9992 -0.0080452 -2.1726e-05)
(9.9987 -0.0055127 -2.1722e-05)
(9.9986 -0.0022863 -2.1721e-05)
(9.9989 0.00072428 -2.166e-05)
(9.9994 0.0027542 -2.1606e-05)
(10 0.0033941 -2.1592e-05)
(10.0005 0.0026888 4.0052e-07)
(10.0008 0.0010146 7.0706e-07)
(6.3444 -4.748 2.2031e-07)
(9.2183 -6.6237 2.2425e-07)
(12.3907 -5.9847 2.3264e-07)
(13.597 -4.9199 2.3335e-07)
(13.3294 -2.5359 3.162e-07)
(10.8078 -1.9818 3.1805e-07)
(3.3381 -2.642 5.7507e-07)
(-2.4493 -1.5585 1.0539e-06)
(-2.6789 -0.50918 9.3199e-07)
(-5.0404 1.4293 9.3025e-07)
(9.7143 2.8606 3.221e-07)
(12.7128 3.152 2.6498e-07)
(12.8113 5.309 2.5979e-07)
(11.2178 6.3153 2.5967e-07)
(5.1071 1.0501 2.2604e-07)
(5.1007 -2.0107 2.1892e-07)
(5.9378 0.27348 2.6089e-06)
(12.3276 1.0437 4.4206e-07)
)
;

boundaryField
{
    bottom
    {
        type             symmetry;
    }
    inlet
    {
        type             fixedValue;
        value            uniform (10 0 0);
    }
    object
    {
        type             noSlip;
    }
    outlet
    {
        type             zeroGradient;
    }
    side1
    {
        type             empty;
    }
    side2
    {
        type             empty;
    }
    top
    {
        type             symmetry;
    }
}

// ************************************************************************* //
