/*--------------------------------*- C++ -*----------------------------------*\\
| =========                 |                                                 |
| \\      /  F ield         | OpenFOAM: The Open Source CFD Toolbox           |
|  \\    /   O peration     | Version:  v1706                                 |
|   \\  /    A nd           | Web:      www.OpenFOAM.com                      |
|    \\/     M anipulation  |                                                 |
\\*---------------------------------------------------------------------------*/
FoamFile
{
    version     2.0;
    format      ascii;
    class       surfaceScalarField;
    location    "0.95";
    object      mdot_f;
}
// * * * * * * * * * * * * * * * * * * * * * * * * * * * * * * * * * * * * * //

dimensions      [1 0 -1 0 0 0 0]


internalField   nonuniform List<scalar>
560
(
-0.00014224
-0.14005
-0.00018436
-0.14251
-0.00039185
-0.14558
-0.00053586
-0.1476
-0.00056352
-0.14855
-0.00054716
-0.14892
-0.00044836
-0.14911
-0.00032473
-0.14913
-0.00017312
-0.14909
-0.14905
-0.0002341
-0.13981
-0.00037093
-0.14236
-0.00053288
-0.14542
-0.00064681
-0.14749
-0.00066211
-0.14853
-0.00062336
-0.14896
-0.0005183
-0.14921
-0.00036939
-0.14927
-0.00019265
-0.14927
-0.14924
-0.00035384
-0.13946
-0.00056911
-0.14214
-0.00074337
-0.14523
-0.00084951
-0.14737
-0.00083981
-0.14854
-0.00076709
-0.14902
-0.00063276
-0.14934
-0.00044594
-0.14946
-0.00022951
-0.14948
-0.14947
-0.00052672
-0.13892
-0.0008387
-0.14182
-0.0010451
-0.14502
-0.0011493
-0.14726
-0.0011045
-0.14858
-0.00098009
-0.14914
-0.00079408
-0.14952
-0.00055468
-0.14969
-0.00028399
-0.14974
-0.14975
-0.00080493
-0.13811
-0.0012387
-0.14138
-0.0014642
-0.14479
-0.0015536
-0.14717
-0.0014585
-0.14867
-0.0012626
-0.14933
-0.0010052
-0.14977
-0.00069583
-0.15
-0.000354
-0.15008
-0.1501
-0.0012253
-0.13688
-0.0017915
-0.1408
-0.0020013
-0.14457
-0.0020622
-0.1471
-0.0019056
-0.14882
-0.0016222
-0.14961
-0.0012737
-0.15012
-0.00087256
-0.1504
-0.00044111
-0.15051
-0.15054
-0.001731
-0.13514
-0.0024788
-0.14005
-0.0026811
-0.14437
-0.0027166
-0.14706
-0.0024878
-0.14904
-0.0020851
-0.15002
-0.0016087
-0.15059
-0.0010893
-0.15091
-0.00054766
-0.15105
-0.15109
-0.0022366
-0.13291
-0.0034944
-0.13879
-0.0037668
-0.14409
-0.0037011
-0.14713
-0.0033
-0.14944
-0.0026856
-0.15063
-0.0020154
-0.15126
-0.001339
-0.15159
-0.0006658
-0.15172
-0.15175
-0.0035346
-0.12937
-0.0058898
-0.13644
-0.0059127
-0.14407
-0.0052724
-0.14777
-0.0043848
-0.15034
-0.0033955
-0.15162
-0.0024548
-0.1522
-0.001589
-0.15246
-0.00077848
-0.15253
-0.15253
-0.0095097
-0.11986
-0.011117
-0.13484
-0.0093666
-0.14583
-0.0072721
-0.14987
-0.0055246
-0.15208
-0.0040457
-0.1531
-0.0028129
-0.15344
-0.0017746
-0.1535
-0.00085797
-0.15345
-0.15339
0.020619
-0.14048
0.024627
-0.13885
0.025434
-0.14664
0.024132
-0.14857
0.021315
-0.14927
0.017694
-0.14949
0.013589
-0.14933
0.009185
-0.1491
0.0046238
-0.14889
-0.14877
0.012306
-0.15279
0.01728
-0.14383
0.01873
-0.14809
0.018137
-0.14798
0.016231
-0.14737
0.013573
-0.14683
0.01047
-0.14623
0.0070993
-0.14573
0.0035819
-0.14538
-0.14519
0.0072187
-0.16001
0.0116
-0.14822
0.012925
-0.14942
0.012711
-0.14777
0.011491
-0.14615
0.0096662
-0.14501
0.007483
-0.14406
0.0050864
-0.14334
0.00257
-0.14286
-0.14262
0.0037055
-0.16372
0.0069243
-0.15144
0.0077903
-0.15029
0.0077364
-0.14772
0.0070484
-0.14547
0.0059511
-0.14392
0.0046167
-0.14273
0.0031422
-0.14187
0.0015882
-0.14132
-0.14104
0.00090708
-0.16464
0.0027417
-0.15328
0.003068
-0.15063
0.0030575
-0.14772
0.0028083
-0.14523
0.0023711
-0.14349
0.0018356
-0.1422
0.0012462
-0.14129
0.00062833
-0.1407
-0.14041
-0.0015958
-0.16304
-0.0012656
-0.15362
-0.0014503
-0.15045
-0.0014672
-0.14771
-0.0013349
-0.14536
-0.0011502
-0.14368
-0.00091207
-0.14244
-0.00063263
-0.14157
-0.00032463
-0.14102
-0.14074
-0.0041305
-0.15892
-0.0053165
-0.15244
-0.0059731
-0.1498
-0.0060028
-0.14768
-0.0055134
-0.14586
-0.0047117
-0.14448
-0.003694
-0.14346
-0.0025344
-0.14273
-0.0012891
-0.14227
-0.14203
-0.0068664
-0.15205
-0.0096566
-0.14965
-0.010852
-0.14861
-0.010854
-0.14768
-0.0099422
-0.14678
-0.0084514
-0.14598
-0.0065926
-0.14533
-0.0045048
-0.14483
-0.0022847
-0.14449
-0.14432
-0.010514
-0.14154
-0.015307
-0.14487
-0.016889
-0.14703
-0.016506
-0.14807
-0.014878
-0.14841
-0.012501
-0.14836
-0.0096736
-0.14816
-0.0065753
-0.14793
-0.0033234
-0.14775
-0.14765
-0.019325
-0.12222
-0.024628
-0.13957
-0.025018
-0.14664
-0.023287
-0.14981
-0.020427
-0.15127
-0.016893
-0.1519
-0.012946
-0.15211
-0.0087473
-0.15213
-0.0044057
-0.1521
-0.15205
0.011315
-0.13354
0.011827
-0.14009
0.010193
-0.14501
0.0082076
-0.14783
0.0063488
-0.14942
0.0047316
-0.15029
0.003342
-0.15072
0.0021282
-0.15093
0.0010319
-0.151
-0.15102
0.0055806
-0.13912
0.0074144
-0.14192
0.0072176
-0.14482
0.0063004
-0.14691
0.0051624
-0.14828
0.0040078
-0.14913
0.0029133
-0.14963
0.0018915
-0.14991
0.00092795
-0.15004
-0.1501
0.0030734
-0.1422
0.0046637
-0.14352
0.0050147
-0.14517
0.00469
-0.14659
0.0040406
-0.14764
0.0032547
-0.14835
0.002429
-0.14881
0.0016056
-0.14909
0.00079619
-0.14924
-0.1493
0.0018276
-0.14403
0.0030021
-0.14469
0.0034676
-0.14564
0.0034273
-0.14655
0.0030795
-0.14729
0.0025607
-0.14784
0.0019557
-0.14821
0.0013135
-0.14845
0.00065756
-0.14858
-0.14865
0.0011459
-0.14518
0.0019758
-0.14553
0.0023985
-0.14607
0.0024732
-0.14663
0.0022988
-0.14712
0.0019626
-0.1475
0.0015289
-0.14778
0.0010408
-0.14796
0.00052521
-0.14807
-0.14812
0.00074201
-0.14592
0.0013185
-0.1461
0.0016561
-0.1464
0.0017623
-0.14674
0.0016819
-0.14704
0.0014668
-0.14729
0.0011613
-0.14747
0.00079951
-0.1476
0.00040612
-0.14768
-0.14772
0.0004859
-0.14641
0.00088005
-0.1465
0.0011314
-0.14666
0.0012316
-0.14684
0.0011992
-0.14701
0.0010631
-0.14715
0.00085252
-0.14726
0.00059229
-0.14734
0.00030247
-0.14739
-0.14741
0.00031314
-0.14672
0.00057406
-0.14676
0.00074947
-0.14683
0.00082889
-0.14692
0.00081884
-0.147
0.00073479
-0.14707
0.00059487
-0.14713
0.0004161
-0.14716
0.00021333
-0.14719
-0.1472
0.00018862
-0.14691
0.00034825
-0.14692
0.00045903
-0.14695
0.00051278
-0.14697
0.00051132
-0.147
0.00046251
-0.14702
0.00037681
-0.14704
0.00026474
-0.14705
0.00013608
-0.14706
-0.14707
9.0307e-05
0.00016746
0.00022162
0.00024851
0.00024865
0.00022555
0.00018413
0.00012954
6.6695e-05
)
;

boundaryField
{
    bump
    {
        type             calculated;
        value            uniform 0;
    }
    outlet
    {
        type             calculated;
        value            nonuniform List<scalar>
10
(
0.1489
0.14896
0.14903
0.14905
0.14896
0.14864
0.14779
0.14585
0.14265
0.14034
)
;
    }
    inlet
    {
        type             calculated;
        value            nonuniform List<scalar>
10
(
-0.147
-0.147
-0.147
-0.147
-0.147
-0.147
-0.147
-0.147
-0.147
-0.147
)
;
    }
    side1
    {
        type             calculated;
        value            uniform 0;
    }
    side2
    {
        type             calculated;
        value            uniform 0;
    }
    symmetry
    {
        type             calculated;
        value            uniform 0;
    }
    top
    {
        type             calculated;
        value            uniform 0;
    }
}

// ************************************************************************* //
