/*--------------------------------*- C++ -*----------------------------------*\\
| =========                 |                                                 |
| \\      /  F ield         | OpenFOAM: The Open Source CFD Toolbox           |
|  \\    /   O peration     | Version:  v1706                                 |
|   \\  /    A nd           | Web:      www.OpenFOAM.com                      |
|    \\/     M anipulation  |                                                 |
\\*---------------------------------------------------------------------------*/
FoamFile
{
    version     2.0;
    format      ascii;
    class       volScalarField;
    location    "0.95";
    object      p;
}
// * * * * * * * * * * * * * * * * * * * * * * * * * * * * * * * * * * * * * //

dimensions      [1 -1 -2 0 0 0 0]


internalField   nonuniform List<scalar>
300
(
4.918
1.6702
6.3887
5.6885
3.8903
2.5036
-0.72187
-2.0445
-2.8913
-3.4628
18.1227
10.9751
15.1017
12.5884
8.158
4.8802
-0.96249
-4.2192
-6.179
-7.3694
40.7697
26.8389
26.2132
19.4341
11.1299
5.8347
-2.2869
-7.5742
-10.6994
-12.477
68.3139
45.1506
37.4601
24.8472
11.4587
4.0996
-5.7968
-12.9894
-17.2377
-19.5241
91.9135
59.5046
46.1453
28.539
9.2692
-0.57005
-11.9751
-20.9433
-26.3072
-29.0954
110.1798
69.5185
53.6522
32.9252
6.2247
-7.8825
-21.2297
-31.9687
-38.4555
-41.7279
153.0591
93.7026
67.9922
41.1229
3.0428
-18.5551
-34.7311
-47.1241
-54.4729
-58.0346
289.035
164.3678
92.2369
47.054
-5.9788
-36.6139
-55.1018
-67.876
-75.1281
-78.5144
526.2322
265.3105
96.176
25.7516
-34.7673
-68.691
-85.3602
-95.3757
-100.6634
-103.0496
557.7866
245.6101
12.5967
-53.2867
-95.1898
-118.1162
-125.8049
-128.9901
-130.1118
-130.5586
-179.6773
-56.6499
-180.4314
-184.3813
-180.2749
-178.8173
-171.5901
-165.1436
-160.7409
-158.7114
-676.864
-329.4703
-348.6662
-299.7431
-257.6038
-233.928
-213.2404
-198.1639
-188.6103
-184.1144
-1008.6776
-558.9487
-486.7648
-397.2982
-323.5015
-279.761
-247.0737
-224.5142
-210.4975
-203.8092
-1192.5017
-715.6199
-572.6016
-461.2628
-367.2697
-309.1804
-267.987
-240.212
-223.1263
-214.9264
-1244.1773
-794.7485
-600.656
-482.8437
-381.8589
-317.0622
-272.239
-242.3938
-224.1702
-215.4311
-1169.1664
-795.2571
-571.6373
-457.9719
-363.2159
-300.6599
-258.0804
-229.9542
-212.8708
-204.6844
-935.7471
-696.1906
-480.2523
-384.483
-310.3993
-260.4541
-226.5549
-204.0805
-190.375
-183.736
-470.2828
-449.408
-314.6715
-264.7421
-227.9656
-201.148
-181.7248
-168.1402
-159.5301
-155.1639
226.5362
-54.7841
-92.3801
-119.8346
-130.9194
-132.5475
-130.2484
-126.9599
-124.1703
-122.3917
778.3364
290.2371
95.396
3.7445
-43.4469
-67.6921
-79.8308
-85.6267
-88.1412
-88.8064
480.177
293.1607
152.5747
67.5927
15.0841
-17.2439
-36.7744
-48.2302
-54.4778
-57.0658
332.8552
251.742
163.923
97.1915
50.0541
17.7762
-3.6573
-17.3168
-25.3095
-28.8803
248.1285
208.2821
155.5522
107.8453
69.8673
41.4327
21.1262
7.4028
-0.99917
-4.9011
196.4546
174.8692
142.5174
109.4048
80.3593
56.9162
39.1408
26.5513
18.5714
14.765
163.5407
150.8596
130.2698
107.2817
85.5323
66.8592
51.9776
41.0186
33.8739
30.3957
141.9954
134.0118
120.351
104.1264
87.8591
73.1782
60.9872
51.7131
45.5231
42.4597
127.7497
122.3942
112.9012
101.115
88.7639
77.1655
67.2059
59.4236
54.1258
51.4675
118.5194
114.6731
107.6876
98.7322
89.0301
79.6326
71.3443
64.727
60.1498
57.8267
113.1303
110.101
104.5122
97.1893
89.0692
81.0289
73.8002
67.939
63.8377
61.7381
110.9627
108.2489
103.2124
96.5444
89.067
81.5847
74.7958
69.2512
65.35
63.3432
)
;

boundaryField
{
    bump
    {
        type             zeroGradient;
    }
    outlet
    {
        type             fixedValue;
        value            uniform 0;
    }
    inlet
    {
        type             zeroGradient;
    }
    side1
    {
        type             empty;
    }
    side2
    {
        type             empty;
    }
    symmetry
    {
        type             symmetry;
    }
    top
    {
        type             symmetry;
    }
}

// ************************************************************************* //
