/*--------------------------------*- C++ -*----------------------------------*\\
| =========                 |                                                 |
| \\      /  F ield         | OpenFOAM: The Open Source CFD Toolbox           |
|  \\    /   O peration     | Version:  v1706                                 |
|   \\  /    A nd           | Web:      www.OpenFOAM.com                      |
|    \\/     M anipulation  |                                                 |
\\*---------------------------------------------------------------------------*/
FoamFile
{
    version     2.0;
    format      ascii;
    class       volVectorField;
    location    "0.95";
    object      U;
}
// * * * * * * * * * * * * * * * * * * * * * * * * * * * * * * * * * * * * * //

dimensions      [0 1 -1 0 0 0 0]


internalField   nonuniform List<vector>
300
(
(57.2801 -0.19724 0.013866)
(58.2258 0.014798 0.0095351)
(59.5295 -0.068065 0.0053598)
(60.3231 -0.30422 0.0032984)
(60.6693 -0.17578 0.0020329)
(60.8002 -0.2749 0.0012283)
(60.8358 -0.1886 0.00073012)
(60.8288 -0.15434 0.00057114)
(60.8015 -0.10399 0.0022257)
(60.7746 -0.03657 0.0023119)
(57.2055 -0.24337 0.013797)
(58.2047 -0.027745 0.0094808)
(59.426 -0.097395 0.0054034)
(60.2335 -0.35978 0.0033607)
(60.6272 -0.2107 0.0021029)
(60.7868 -0.31199 0.0013013)
(60.8768 -0.22372 0.00080383)
(60.8931 -0.17454 0.00064261)
(60.8832 -0.11633 0.0022337)
(60.8683 -0.040894 0.0023209)
(57.0306 -0.31217 0.01359)
(58.0903 -0.092568 0.0092923)
(59.3355 -0.14072 0.0053078)
(60.1784 -0.44965 0.0032808)
(60.6161 -0.27863 0.0020291)
(60.799 -0.37655 0.0012295)
(60.9165 -0.28472 0.00073217)
(60.9535 -0.2119 0.00056789)
(60.956 -0.13897 0.0020943)
(60.9479 -0.049066 0.0021819)
(56.7946 -0.41624 0.013469)
(57.9415 -0.20937 0.0091914)
(59.2388 -0.22164 0.0052954)
(60.1303 -0.58545 0.0032807)
(60.6229 -0.3849 0.0020326)
(60.8318 -0.46825 0.0012335)
(60.9741 -0.37099 0.00073527)
(61.0333 -0.26736 0.00056655)
(61.0485 -0.17178 0.0020275)
(61.0468 -0.060696 0.0021152)
(56.5406 -0.57038 0.013364)
(57.7949 -0.40338 0.009107)
(59.1514 -0.3554 0.005294)
(60.0931 -0.77847 0.0032874)
(60.6519 -0.53636 0.0020403)
(60.8918 -0.58653 0.0012399)
(61.0572 -0.4811 0.00073961)
(61.1391 -0.34125 0.00056485)
(61.1676 -0.21444 0.0019602)
(61.1721 -0.075421 0.0020475)
(56.2899 -0.78274 0.013277)
(57.6649 -0.67936 0.0090422)
(59.0706 -0.53354 0.0053048)
(60.0526 -1.0295 0.0033014)
(60.6939 -0.7411 0.002052)
(60.9799 -0.73444 0.0012486)
(61.1717 -0.61507 0.00074487)
(61.2774 -0.43424 0.00056228)
(61.3202 -0.26756 0.0018923)
(61.3312 -0.093411 0.001979)
(55.8322 -1.0626 0.013212)
(57.4215 -1.0398 0.009)
(58.9339 -0.74162 0.0053286)
(59.977 -1.3426 0.0033227)
(60.7392 -1.0207 0.0020675)
(61.1028 -0.92635 0.001259)
(61.3299 -0.77666 0.00075069)
(61.4595 -0.54724 0.00055832)
(61.5154 -0.33163 0.0018237)
(61.5316 -0.11474 0.0019098)
(54.4841 -1.4958 0.013173)
(56.7242 -1.631 0.0089826)
(58.6689 -1.0641 0.0053663)
(59.8869 -1.77 0.0033516)
(60.8239 -1.4211 0.0020869)
(61.2945 -1.1871 0.001271)
(61.5581 -0.97059 0.00075668)
(61.703 -0.67803 0.00055246)
(61.7641 -0.40351 0.0017542)
(61.7811 -0.13794 0.0018399)
(51.649 -2.4264 0.013158)
(55.4428 -3.0481 0.0089981)
(58.4524 -1.8352 0.0054225)
(59.9834 -2.4229 0.00339)
(61.076 -1.9773 0.0021104)
(61.6256 -1.521 0.0012843)
(61.8936 -1.1841 0.0007625)
(62.0247 -0.812 0.0005443)
(62.0726 -0.47383 0.0016838)
(62.082 -0.15989 0.0017693)
(49.4513 -4.417 0.013194)
(54.6999 -6.2371 0.0090822)
(58.9366 -3.4568 0.0055098)
(60.6295 -3.3054 0.003441)
(61.6605 -2.6063 0.002138)
(62.1603 -1.8628 0.0012981)
(62.358 -1.3684 0.00076733)
(62.4274 -0.91597 0.00053345)
(62.4356 -0.52517 0.0016121)
(62.426 -0.17536 0.001698)
(55.0038 -6.8783 0.013265)
(56.752 -10.5142 0.009176)
(60.7362 -5.5178 0.0055682)
(61.9965 -4.0516 0.0034589)
(62.6109 -3.0492 0.002138)
(62.8791 -2.0738 0.001292)
(62.9202 -1.4493 0.00075939)
(62.8834 -0.94856 0.00051386)
(62.8291 -0.53666 0.0015358)
(62.7911 -0.17795 0.0016263)
(63.7625 -6.0319 0.0128)
(61.0173 -11.0783 0.0082288)
(63.5241 -5.5328 0.0047447)
(63.8162 -3.7966 0.002932)
(63.782 -2.8382 0.0018011)
(63.6855 -1.8706 0.0010859)
(63.5086 -1.2843 0.00064447)
(63.3402 -0.83016 0.00046167)
(63.2136 -0.4669 0.0015074)
(63.1446 -0.15211 0.00155)
(69.5091 -3.7721 0.011698)
(64.6644 -9.2643 0.0070968)
(65.795 -4.7027 0.0039237)
(65.3147 -2.9755 0.0024238)
(64.7672 -2.2702 0.0014768)
(64.3666 -1.4545 0.00088863)
(64.0059 -0.9826 0.0005336)
(63.7255 -0.62672 0.00040871)
(63.5353 -0.35072 0.0014566)
(63.4376 -0.11188 0.0014629)
(73.0497 -0.93121 0.010258)
(67.492 -5.9862 0.0058155)
(67.431 -3.2724 0.0031606)
(66.4158 -1.7302 0.0019747)
(65.4954 -1.4045 0.0012108)
(64.8596 -0.85655 0.0007378)
(64.3579 -0.5631 0.00045076)
(63.9925 -0.3503 0.0003693)
(63.754 -0.19428 0.0013915)
(63.6339 -0.059597 0.0013715)
(74.7219 2.0456 0.009451)
(69.2457 -1.927 0.0049683)
(68.2899 -1.4228 0.0027213)
(66.9956 -0.2502 0.001712)
(65.8735 -0.33761 0.001058)
(65.096 -0.13408 0.00065634)
(64.5131 -0.063271 0.00040845)
(64.1004 -0.024834 0.00035103)
(63.8358 -0.010966 0.0013181)
(63.7039 0.00036457 0.0012795)
(74.6945 4.8473 0.0093458)
(69.8415 2.3641 0.0047874)
(68.3448 0.72042 0.0026394)
(66.991 1.2853 0.00166)
(65.8456 0.81431 0.0010278)
(65.0353 0.6405 0.00064273)
(64.4424 0.46723 0.00040288)
(64.0276 0.31788 0.0003504)
(63.7636 0.18118 0.0012371)
(63.6325 0.062499 0.0011884)
(72.9057 7.2187 0.0087375)
(69.1107 6.3559 0.0045788)
(67.5593 3.0169 0.0024534)
(66.3636 2.7368 0.001524)
(65.3817 1.9159 0.00094374)
(64.6659 1.3821 0.00058898)
(64.1428 0.96921 0.00036875)
(63.7754 0.64008 0.00032594)
(63.5407 0.36127 0.0011367)
(63.4233 0.12078 0.0010941)
(68.7913 8.7794 0.0063784)
(66.7534 9.4967 0.0035222)
(65.8303 5.1391 0.0017613)
(65.1118 3.9436 0.0010721)
(64.5008 2.8017 0.00067711)
(64.0176 1.9842 0.00042766)
(63.6447 1.3755 0.00026904)
(63.3713 0.90135 0.00025278)
(63.1916 0.5079 0.0010183)
(63.0994 0.16853 0.00099557)
(61.7637 8.9168 0.0030297)
(62.6538 10.8303 0.0019138)
(63.2539 6.4749 0.00087135)
(63.4066 4.6225 0.00053556)
(63.3435 3.2985 0.00036979)
(63.1912 2.3418 0.00024805)
(63.0203 1.6281 0.00015927)
(62.8694 1.0696 0.00016554)
(62.7597 0.60501 0.00090121)
(62.6993 0.20056 0.00090006)
(53.8375 6.8567 0.001015)
(58.2926 9.1442 0.00089301)
(60.6784 6.2603 0.00030975)
(61.7341 4.5167 0.00018105)
(62.1852 3.3137 0.00014006)
(62.3444 2.4101 0.00010163)
(62.367 1.705 6.7136e-05)
(62.3356 1.1335 8.0003e-05)
(62.295 0.64664 0.00079386)
(62.2665 0.21428 0.00081123)
(52.469 2.6581 0.000697)
(57 4.9318 0.00073321)
(59.4177 4.6665 0.00014455)
(60.6662 3.8025 3.7619e-05)
(61.3151 2.9751 2.2138e-05)
(61.6363 2.2545 1.582e-05)
(61.7795 1.6383 1.0149e-05)
(61.8316 1.1081 6.0579e-06)
(61.8429 0.63876 0.00070164)
(61.8399 0.21041 0.00073286)
(55.847 1.2576 0.00065682)
(57.6358 2.7777 0.00065418)
(59.1322 3.0901 6.9585e-05)
(60.1097 2.8125 5.3108e-06)
(60.7156 2.3614 3.3957e-07)
(61.0732 1.8786 2.3828e-08)
(61.2718 1.4129 -1.1964e-08)
(61.3741 0.97867 -2.3235e-08)
(61.4216 0.57309 0.00063492)
(61.4382 0.18999 0.00066012)
(57.5116 0.67447 0.0005849)
(58.3006 1.6473 0.00058358)
(59.1854 2.0392 3.9687e-05)
(59.8808 2.0237 2.1548e-06)
(60.3687 1.8062 1.2752e-07)
(60.689 1.5013 1.1906e-08)
(60.8869 1.1656 -1.4278e-08)
(61.0018 0.82536 -2.6341e-08)
(61.0625 0.49041 0.00056952)
(61.0874 0.16353 0.00058692)
(58.4686 0.3942 0.0005124)
(58.8508 1.023 0.00051171)
(59.3591 1.36 2.2233e-05)
(59.8191 1.4385 8.7126e-07)
(60.1767 1.3492 6.2635e-08)
(60.4315 1.1642 8.2058e-09)
(60.6012 0.92918 -1.5751e-08)
(60.7069 0.67099 -2.8815e-08)
(60.7666 0.40389 0.00050225)
(60.7927 0.1354 0.00051364)
(59.0544 0.24432 0.00043958)
(59.2509 0.65817 0.00043922)
(59.5416 0.91739 1.2152e-05)
(59.8323 1.0161 3.6568e-07)
(60.077 0.99051 4.3517e-08)
(60.2632 0.88119 6.7573e-09)
(60.3943 0.71993 -1.6782e-08)
(60.4801 0.52868 -3.0812e-08)
(60.5306 0.32176 0.00043329)
(60.5534 0.10834 0.00044032)
(59.4287 0.15696 0.00036658)
(59.5323 0.43275 0.00036639)
(59.6964 0.62245 6.3777e-06)
(59.8722 0.71245 1.726e-07)
(60.0292 0.71512 3.795e-08)
(60.1548 0.65172 6.0408e-09)
(60.2472 0.54266 -1.7487e-08)
(60.3098 0.40407 -3.2378e-08)
(60.3478 0.2482 0.00036294)
(60.3653 0.083878 0.00036698)
(59.6734 0.1022 0.00029345)
(59.7272 0.28594 0.00029336)
(59.816 0.41995 3.1357e-06)
(59.9157 0.49189 1.0234e-07)
(60.0087 0.5045 3.6325e-08)
(60.0857 0.46834 5.6831e-09)
(60.1443 0.39577 -1.7911e-08)
(60.185 0.29797 -3.353e-08)
(60.2102 0.18441 0.00029151)
(60.222 0.062509 0.00029361)
(59.8337 0.065558 0.00022023)
(59.8593 0.1851 0.00022018)
(59.9028 0.27557 1.3936e-06)
(59.9531 0.32792 7.8889e-08)
(60.0014 0.34154 3.5895e-08)
(60.0424 0.32138 5.5815e-09)
(60.0742 0.27459 -1.808e-08)
(60.0968 0.20846 -3.4284e-08)
(60.1109 0.12973 0.00021928)
(60.1176 0.044074 0.00022022)
(59.9334 0.039261 0.00014693)
(59.9433 0.11143 0.00014691)
(59.9603 0.16727 5.3757e-07)
(59.9803 0.20109 7.2325e-08)
(59.9998 0.21156 3.5952e-08)
(60.0166 0.20088 5.7367e-09)
(60.0298 0.17292 -1.7975e-08)
(60.0392 0.13201 -3.4613e-08)
(60.0452 0.082468 0.0001465)
(60.0479 0.028056 0.00014682)
(59.9851 0.01844 5.4368e-08)
(59.9873 0.052636 4.3842e-08)
(59.9911 0.079407 -7.3306e-05)
(59.9955 0.095976 -7.3411e-05)
(59.9999 0.1015 -7.3433e-05)
(60.0037 0.096823 -7.3452e-05)
(60.0067 0.083657 -7.3466e-05)
(60.0088 0.06404 -7.3477e-05)
(60.0101 0.040096 -1.0162e-07)
(60.0107 0.013625 -3.9827e-08)
)
;

boundaryField
{
    bump
    {
        type             noSlip;
    }
    outlet
    {
        type             zeroGradient;
    }
    inlet
    {
        type             fixedValue;
        value            uniform (60 0 0);
    }
    side1
    {
        type             empty;
    }
    side2
    {
        type             empty;
    }
    symmetry
    {
        type             symmetry;
    }
    top
    {
        type             symmetry;
    }
}

// ************************************************************************* //
