/*--------------------------------*- C++ -*----------------------------------*\\
| =========                 |                                                 |
| \\      /  F ield         | OpenFOAM: The Open Source CFD Toolbox           |
|  \\    /   O peration     | Version:  v1706                                 |
|   \\  /    A nd           | Web:      www.OpenFOAM.com                      |
|    \\/     M anipulation  |                                                 |
\\*---------------------------------------------------------------------------*/
FoamFile
{
    version     2.0;
    format      ascii;
    class       surfaceScalarField;
    location    "0.7";
    object      mdot_f;
}
// * * * * * * * * * * * * * * * * * * * * * * * * * * * * * * * * * * * * * //

dimensions      [1 0 -1 0 0 0 0]


internalField   nonuniform List<scalar>
560
(
-0.00033166
-0.14014
-0.00044889
-0.14261
-0.00058453
-0.14551
-0.00069004
-0.14756
-0.00075957
-0.14859
-0.00077086
-0.14902
-0.00065248
-0.14921
-0.00046597
-0.14925
-0.0002432
-0.14922
-0.14919
-0.00027571
-0.13987
-0.00047936
-0.14242
-0.00065685
-0.14535
-0.00077099
-0.14746
-0.00079607
-0.14857
-0.00076092
-0.14906
-0.00064126
-0.14933
-0.00045773
-0.14944
-0.00023754
-0.14945
-0.14943
-0.00033044
-0.13955
-0.00059223
-0.14218
-0.00080795
-0.14515
-0.00093662
-0.14735
-0.00093141
-0.14859
-0.00085235
-0.14916
-0.00070417
-0.14949
-0.0004986
-0.14965
-0.00025813
-0.1497
-0.14969
-0.00049006
-0.13907
-0.00082828
-0.14187
-0.0010697
-0.14493
-0.0012015
-0.14723
-0.0011608
-0.14865
-0.0010283
-0.14931
-0.00083165
-0.14971
-0.00058245
-0.14991
-0.00030049
-0.14999
-0.15
-0.00077993
-0.13831
-0.0012182
-0.14146
-0.0014568
-0.14472
-0.0015698
-0.14714
-0.0014817
-0.14876
-0.0012823
-0.14952
-0.0010187
-0.14998
-0.00070593
-0.15024
-0.00036264
-0.15035
-0.15037
-0.0012156
-0.13711
-0.0017704
-0.14094
-0.001969
-0.14454
-0.0020445
-0.14709
-0.0019018
-0.14892
-0.0016208
-0.14982
-0.0012693
-0.15035
-0.00087082
-0.15065
-0.00044434
-0.15078
-0.15082
-0.0017398
-0.13539
-0.0024768
-0.14023
-0.0026485
-0.14439
-0.0026814
-0.14708
-0.0024658
-0.14915
-0.0020695
-0.15023
-0.0015941
-0.15084
-0.0010795
-0.15118
-0.00054589
-0.15133
-0.15137
-0.0022864
-0.13312
-0.0035439
-0.13899
-0.0037673
-0.14419
-0.0036672
-0.14719
-0.0032651
-0.14957
-0.0026593
-0.15085
-0.0019935
-0.15151
-0.0013229
-0.15186
-0.00066057
-0.152
-0.15203
-0.0036377
-0.1295
-0.005982
-0.13666
-0.0059421
-0.14424
-0.0052406
-0.1479
-0.0043382
-0.15048
-0.0033578
-0.15183
-0.0024241
-0.15245
-0.0015673
-0.15272
-0.0007699
-0.1528
-0.1528
-0.0096111
-0.11989
-0.011193
-0.13509
-0.0093958
-0.14604
-0.0072367
-0.15006
-0.005464
-0.15225
-0.0039943
-0.1533
-0.0027734
-0.15367
-0.0017466
-0.15374
-0.00084389
-0.1537
-0.15364
0.020779
-0.14068
0.024822
-0.13913
0.025624
-0.14684
0.024319
-0.14876
0.021477
-0.14941
0.017823
-0.14965
0.013688
-0.14953
0.0092552
-0.14931
0.0046606
-0.1491
-0.14898
0.012354
-0.15303
0.017346
-0.14411
0.018803
-0.14829
0.018238
-0.14819
0.016344
-0.14751
0.013672
-0.14697
0.010546
-0.1464
0.007152
-0.14591
0.0036094
-0.14555
-0.14537
0.0072069
-0.16023
0.011581
-0.14847
0.01291
-0.14961
0.012723
-0.14799
0.011537
-0.14631
0.0097212
-0.14514
0.0075297
-0.1442
0.0051199
-0.14349
0.0025888
-0.14302
-0.14277
0.0036807
-0.16391
0.006881
-0.15166
0.0077425
-0.15046
0.0076976
-0.14793
0.0070409
-0.14564
0.005965
-0.14406
0.0046349
-0.14286
0.0031575
-0.142
0.0015991
-0.14145
-0.14117
0.00089709
-0.1648
0.0027203
-0.15347
0.0030418
-0.15077
0.0030175
-0.1479
0.0027798
-0.14539
0.0023606
-0.14362
0.0018341
-0.14232
0.0012485
-0.14141
0.00063303
-0.14082
-0.14053
-0.0015933
-0.16319
-0.0012598
-0.15379
-0.0014402
-0.15057
-0.0014795
-0.14784
-0.001356
-0.1455
-0.001166
-0.1438
-0.00092195
-0.14255
-0.00063684
-0.14168
-0.00032316
-0.14112
-0.14084
-0.0041335
-0.15905
-0.0053166
-0.15259
-0.0059621
-0.14991
-0.0060029
-0.14779
-0.0055252
-0.14597
-0.0047252
-0.14459
-0.0037047
-0.14356
-0.0025402
-0.14283
-0.0012881
-0.14236
-0.14213
-0.0068818
-0.15216
-0.0096835
-0.14977
-0.010869
-0.14872
-0.010864
-0.14778
-0.0099544
-0.14687
-0.0084637
-0.14607
-0.0066021
-0.14541
-0.0045097
-0.14491
-0.0022829
-0.14457
-0.1444
-0.010524
-0.14163
-0.015335
-0.14495
-0.016918
-0.14712
-0.016526
-0.14816
-0.014892
-0.14849
-0.012513
-0.14844
-0.0096816
-0.14823
-0.0065783
-0.148
-0.0033206
-0.14782
-0.14772
-0.019311
-0.12231
-0.02462
-0.13963
-0.025027
-0.14671
-0.023302
-0.14988
-0.02044
-0.15134
-0.016903
-0.15196
-0.012952
-0.15217
-0.0087484
-0.15219
-0.0044019
-0.15216
-0.15211
0.011306
-0.13361
0.011828
-0.14014
0.010193
-0.14506
0.0082041
-0.14788
0.0063434
-0.14947
0.0047264
-0.15034
0.0033389
-0.15077
0.0021286
-0.15097
0.0010363
-0.15105
-0.15107
0.0055725
-0.13917
0.0074102
-0.14197
0.0072151
-0.14486
0.0062957
-0.14695
0.0051565
-0.14832
0.0040028
-0.14918
0.0029101
-0.14967
0.0018914
-0.14995
0.00093171
-0.15008
-0.15014
0.0030673
-0.14224
0.0046586
-0.14355
0.0050104
-0.1452
0.004685
-0.14662
0.0040351
-0.14767
0.0032501
-0.14838
0.0024263
-0.14884
0.0016056
-0.14912
0.00079937
-0.14927
-0.14934
0.0018232
-0.14405
0.0029978
-0.14472
0.0034631
-0.14566
0.0034228
-0.14657
0.003075
-0.14731
0.0025569
-0.14786
0.0019537
-0.14823
0.0013137
-0.14847
0.00066032
-0.14861
-0.14867
0.0011426
-0.14519
0.0019725
-0.14554
0.0023949
-0.14608
0.0024696
-0.14664
0.0022955
-0.14714
0.0019601
-0.14752
0.0015277
-0.1478
0.0010414
-0.14798
0.0005278
-0.14809
-0.14814
0.00073967
-0.14593
0.0013164
-0.14612
0.0016538
-0.14642
0.0017601
-0.14675
0.0016801
-0.14705
0.0014656
-0.1473
0.0011611
-0.14749
0.00080064
-0.14762
0.00040861
-0.1477
-0.14773
0.00048448
-0.14641
0.00087903
-0.14651
0.0011304
-0.14666
0.0012308
-0.14684
0.0011988
-0.14702
0.0010633
-0.14716
0.00085339
-0.14727
0.00059392
-0.14735
0.00030485
-0.1474
-0.14743
0.00031246
-0.14672
0.00057399
-0.14677
0.00074974
-0.14684
0.0008295
-0.14692
0.00081984
-0.147
0.00073624
-0.14708
0.00059669
-0.14713
0.00041821
-0.14717
0.00021562
-0.1472
-0.14721
0.00018851
-0.14691
0.00034898
-0.14692
0.00046032
-0.14695
0.00051456
-0.14697
0.00051351
-0.147
0.00046499
-0.14702
0.00037939
-0.14704
0.00026723
-0.14706
0.00013823
-0.14707
-0.14707
9.1062e-05
0.0001689
0.00022374
0.00025124
0.0002518
0.00022887
0.00018731
0.00013213
6.8087e-05
)
;

boundaryField
{
    bump
    {
        type             calculated;
        value            uniform 0;
    }
    outlet
    {
        type             calculated;
        value            nonuniform List<scalar>
10
(
0.14884
0.14889
0.14894
0.14895
0.14886
0.14847
0.14754
0.14567
0.14285
0.14067
)
;
    }
    inlet
    {
        type             calculated;
        value            nonuniform List<scalar>
10
(
-0.147
-0.147
-0.147
-0.147
-0.147
-0.147
-0.147
-0.147
-0.147
-0.147
)
;
    }
    side1
    {
        type             calculated;
        value            uniform 0;
    }
    side2
    {
        type             calculated;
        value            uniform 0;
    }
    symmetry
    {
        type             calculated;
        value            uniform 0;
    }
    top
    {
        type             calculated;
        value            uniform 0;
    }
}

// ************************************************************************* //
