/*--------------------------------*- C++ -*----------------------------------*\\
| =========                 |                                                 |
| \\      /  F ield         | OpenFOAM: The Open Source CFD Toolbox           |
|  \\    /   O peration     | Version:  v1706                                 |
|   \\  /    A nd           | Web:      www.OpenFOAM.com                      |
|    \\/     M anipulation  |                                                 |
\\*---------------------------------------------------------------------------*/
FoamFile
{
    version     2.0;
    format      ascii;
    class       volScalarField;
    location    "0.7";
    object      p;
}
// * * * * * * * * * * * * * * * * * * * * * * * * * * * * * * * * * * * * * //

dimensions      [1 -1 -2 0 0 0 0]


internalField   nonuniform List<scalar>
300
(
26.1688
15.793
9.8285
0.40974
-3.3058
-4.4313
-7.2796
-9.0866
-9.8693
-10.1528
50.1833
31.7528
18.3837
1.1198
-8.2367
-11.799
-17.0715
-20.9826
-23.0677
-23.9807
67.039
42.2925
22.9811
-1.3316
-16.8856
-22.7011
-29.3261
-34.5871
-37.5319
-38.8242
69.4048
41.237
20.7663
-7.1299
-28.1713
-36.0777
-43.4851
-49.6131
-53.1969
-54.8091
54.1937
26.4087
11.8579
-14.1962
-39.7057
-50.2821
-58.6821
-65.7215
-69.9819
-71.9225
34.8196
7.4761
2.6012
-17.9101
-48.4551
-63.8174
-74.4578
-82.9694
-88.1188
-90.4595
56.4835
12.6891
4.3791
-15.1713
-54.2087
-77.6336
-91.9946
-102.2547
-108.2844
-111.0159
189.1661
75.6739
19.9441
-13.7572
-64.3772
-96.8595
-114.542
-125.5167
-131.5738
-134.2464
428.0691
174.2689
17.7985
-39.5748
-94.2597
-129.0851
-145.7021
-154.4166
-158.6552
-160.409
462.5737
156.2269
-67.9956
-122.1792
-155.9215
-178.2279
-186.1882
-188.4866
-188.7245
-188.6626
-259.0958
-136.5355
-258.1322
-254.4774
-241.4999
-238.2148
-231.3609
-224.3311
-219.1926
-216.75
-734.3025
-393.1715
-417.5953
-367.9546
-318.813
-292.5004
-271.8331
-256.376
-246.2867
-241.4839
-1047.4744
-605.5353
-542.92
-459.715
-383.0534
-337.0426
-304.0564
-281.1528
-266.754
-259.8928
-1225.7866
-753.1189
-617.9497
-515.9562
-423.1642
-364.0857
-322.6967
-294.6845
-277.3682
-269.1301
-1286.6525
-835.4711
-642.266
-531.3228
-433.3317
-368.7461
-324.0492
-294.1862
-275.9251
-267.2659
-1224.7805
-845.7396
-616.0111
-503.5073
-410.9446
-349.0558
-306.8048
-278.8309
-261.8641
-253.845
-992.8612
-750.8631
-527.928
-429.2707
-355.5693
-306.0263
-272.3909
-250.0918
-236.5596
-230.131
-515.2261
-497.6755
-361.3994
-308.7194
-271.222
-244.3406
-224.9694
-211.4753
-203.0167
-198.8591
190.8393
-94.379
-134.6854
-161.5609
-171.9909
-173.3955
-171.0467
-167.7983
-165.1425
-163.5562
740.6882
253.5807
57.3748
-34.8013
-81.9089
-106.1014
-118.2589
-124.1366
-126.8177
-127.686
443.8969
257.6153
116.7062
31.3247
-21.2553
-53.6137
-73.2178
-84.791
-91.2243
-94.0167
298.1268
217.3386
129.5288
62.5954
15.3459
-17.0038
-38.5302
-52.3131
-60.4807
-64.2333
214.6435
174.9428
122.2579
74.4624
36.3909
7.8749
-12.5272
-26.3703
-34.9287
-38.9856
163.8572
142.3455
110.025
76.8684
47.7549
24.2382
6.376
-6.3194
-14.4316
-18.3636
131.5238
118.8802
98.3081
75.2947
53.4977
34.7661
19.814
8.7691
1.5202
-2.053
110.3146
102.3486
88.6982
72.4585
56.1594
41.4375
29.1944
19.8561
13.5905
10.4602
96.2326
90.8835
81.3958
69.6003
57.2294
45.6033
35.6082
27.7827
22.4348
19.7341
87.0627
83.2135
76.2279
67.2657
57.5499
48.1321
39.8194
33.1737
28.5666
26.2226
81.6775
78.6394
73.0473
65.7176
57.5864
49.5306
42.2834
36.4018
32.2834
30.1767
79.4947
76.7781
71.7381
65.0637
57.5767
50.0812
43.277
37.7163
33.8018
31.7865
)
;

boundaryField
{
    bump
    {
        type             zeroGradient;
    }
    outlet
    {
        type             fixedValue;
        value            uniform 0;
    }
    inlet
    {
        type             zeroGradient;
    }
    side1
    {
        type             empty;
    }
    side2
    {
        type             empty;
    }
    symmetry
    {
        type             symmetry;
    }
    top
    {
        type             symmetry;
    }
}

// ************************************************************************* //
