/*--------------------------------*- C++ -*----------------------------------*\\
| =========                 |                                                 |
| \\      /  F ield         | OpenFOAM: The Open Source CFD Toolbox           |
|  \\    /   O peration     | Version:  v1706                                 |
|   \\  /    A nd           | Web:      www.OpenFOAM.com                      |
|    \\/     M anipulation  |                                                 |
\\*---------------------------------------------------------------------------*/
FoamFile
{
    version     2.0;
    format      ascii;
    class       volVectorField;
    location    "0.7";
    object      U;
}
// * * * * * * * * * * * * * * * * * * * * * * * * * * * * * * * * * * * * * //

dimensions      [0 1 -1 0 0 0 0]


internalField   nonuniform List<vector>
300
(
(57.4144 -0.24211 0.014536)
(58.3059 -0.068776 0.010205)
(59.4575 -0.12383 0.0058715)
(60.2188 -0.24715 0.0036118)
(60.6015 -0.22124 0.0022335)
(60.7607 -0.35838 0.0013649)
(60.7977 -0.30566 0.0008187)
(60.7914 -0.23527 0.00059975)
(60.7712 -0.15223 0.0021109)
(60.7521 -0.053854 0.0021472)
(57.0102 -0.27675 0.014702)
(58.051 -0.11398 0.01031)
(59.283 -0.15463 0.0059888)
(60.1558 -0.31142 0.0037042)
(60.5937 -0.23416 0.0023124)
(60.7801 -0.3644 0.0014362)
(60.8763 -0.31262 0.00088663)
(60.9061 -0.23614 0.00066692)
(60.9024 -0.15164 0.0021329)
(60.8894 -0.053462 0.0021773)
(56.838 -0.3545 0.014638)
(57.928 -0.22222 0.010205)
(59.1969 -0.23774 0.0059201)
(60.1214 -0.43068 0.0036263)
(60.6144 -0.29158 0.0022299)
(60.8273 -0.40648 0.0013515)
(60.9513 -0.35442 0.00080229)
(61.0036 -0.26234 0.00058424)
(61.0137 -0.16576 0.0020042)
(61.0069 -0.058125 0.0020574)
(56.6966 -0.47023 0.014576)
(57.8341 -0.38841 0.010121)
(59.1326 -0.37449 0.0058929)
(60.1033 -0.61128 0.0036025)
(60.6589 -0.39809 0.0022089)
(60.8996 -0.47968 0.0013329)
(61.0449 -0.42318 0.00078685)
(61.1158 -0.30916 0.00057181)
(61.1377 -0.19234 0.0019451)
(61.1365 -0.067024 0.0020074)
(56.6062 -0.62281 0.014459)
(57.7963 -0.6022 0.0099986)
(59.1019 -0.54767 0.0058416)
(60.097 -0.84805 0.0035648)
(60.7192 -0.55685 0.0021797)
(60.9934 -0.58263 0.0013095)
(61.1591 -0.51474 0.0007687)
(61.2481 -0.37387 0.00055712)
(61.2817 -0.22958 0.0018831)
(61.2856 -0.079385 0.0019544)
(56.5136 -0.81382 0.014301)
(57.7831 -0.84994 0.0098513)
(59.0829 -0.72584 0.0057755)
(60.0799 -1.1275 0.0035191)
(60.779 -0.77297 0.0021464)
(61.1028 -0.72004 0.0012842)
(61.2954 -0.63083 0.00074965)
(61.4049 -0.45734 0.00054095)
(61.4513 -0.27736 0.0018188)
(61.4614 -0.095014 0.0018988)
(56.1352 -1.0626 0.014123)
(57.6187 -1.1495 0.0096951)
(58.9997 -0.89699 0.0057047)
(60.022 -1.4485 0.003472)
(60.8297 -1.0658 0.0021135)
(61.2347 -0.90853 0.0012598)
(61.4661 -0.77738 0.00073157)
(61.5973 -0.56105 0.00052414)
(61.6558 -0.33675 0.0017531)
(61.6717 -0.11444 0.0018408)
(54.7934 -1.4756 0.013941)
(56.9599 -1.6853 0.0095458)
(58.7827 -1.168 0.0056396)
(59.9541 -1.8638 0.0034303)
(60.9162 -1.4774 0.0020854)
(61.4273 -1.1732 0.0012395)
(61.6996 -0.96037 0.00071632)
(61.8453 -0.68296 0.00050752)
(61.9083 -0.40451 0.0016866)
(61.9251 -0.13618 0.0017808)
(51.9534 -2.4007 0.013771)
(55.7007 -3.067 0.0094255)
(58.6109 -1.8876 0.0055946)
(60.082 -2.4854 0.0034023)
(61.1742 -2.0347 0.0020669)
(61.7555 -1.5146 0.001226)
(62.035 -1.1678 0.00070558)
(62.1672 -0.80938 0.0004919)
(62.2164 -0.47084 0.0016201)
(62.2258 -0.15671 0.0017193)
(49.6873 -4.3834 0.013661)
(54.9608 -6.2186 0.00939)
(59.126 -3.4599 0.0055966)
(60.7598 -3.3242 0.0034008)
(61.765 -2.6511 0.0020649)
(62.2818 -1.862 0.0012235)
(62.4925 -1.3495 0.00070214)
(62.5645 -0.90733 0.00047921)
(62.5741 -0.51842 0.0015545)
(62.5653 -0.17087 0.0016566)
(55.1538 -6.8579 0.013613)
(56.948 -10.482 0.009395)
(60.9061 -5.479 0.0055984)
(62.1431 -4.0209 0.0033898)
(62.7278 -3.0708 0.0020551)
(62.9982 -2.0778 0.0012179)
(63.0498 -1.4328 0.00069884)
(63.0148 -0.93693 0.00046659)
(62.9601 -0.52769 0.0014885)
(62.9215 -0.17303 0.001594)
(63.8755 -6.0154 0.013057)
(61.1683 -11.0521 0.0083268)
(63.667 -5.4972 0.0046849)
(63.9612 -3.7507 0.0028261)
(63.8963 -2.849 0.0017182)
(63.7947 -1.877 0.0010256)
(63.6269 -1.2727 0.00059992)
(63.4602 -0.82034 0.00042843)
(63.3328 -0.45842 0.0014738)
(63.263 -0.14784 0.0015272)
(69.5712 -3.7669 0.011891)
(64.7647 -9.261 0.007147)
(65.9018 -4.6917 0.0038515)
(65.4498 -2.9297 0.0023404)
(64.8795 -2.2716 0.001427)
(64.4686 -1.4632 0.0008584)
(64.1133 -0.97736 0.00051345)
(63.8341 -0.62006 0.00039373)
(63.6431 -0.34344 0.0014379)
(63.5447 -0.10831 0.0014488)
(73.0959 -0.93773 0.010431)
(67.5612 -6.0109 0.005868)
(67.5061 -3.2988 0.0031184)
(66.5339 -1.7024 0.0019392)
(65.6039 -1.4009 0.0012042)
(64.9559 -0.86528 0.0007415)
(64.4554 -0.56287 0.00045661)
(64.09 -0.34659 0.00037305)
(63.8506 -0.18845 0.0013869)
(63.7301 -0.056793 0.0013647)
(74.8008 2.0359 0.009632)
(69.3233 -1.9619 0.0050477)
(68.3529 -1.4762 0.0027207)
(67.094 -0.24882 0.0017167)
(65.9731 -0.33446 0.001079)
(65.1853 -0.14101 0.00067957)
(64.6007 -0.065626 0.00042877)
(64.1869 -0.023076 0.00036505)
(63.9216 -0.006351 0.0013218)
(63.7897 0.0025289 0.0012771)
(74.8189 4.8463 0.0095056)
(69.9471 2.3494 0.0048739)
(68.4132 0.67077 0.0026662)
(67.0714 1.268 0.0016869)
(65.9311 0.81325 0.0010602)
(65.1148 0.63575 0.00067196)
(64.5194 0.46437 0.00042664)
(64.1031 0.31871 0.00036669)
(63.8388 0.18497 0.0012436)
(63.7082 0.064276 0.0011881)
(73.0308 7.228 0.0088461)
(69.2247 6.3736 0.004644)
(67.6346 2.9949 0.0024828)
(66.4311 2.7154 0.0015519)
(65.4517 1.9094 0.00097353)
(64.7336 1.3776 0.000615)
(64.2087 0.96636 0.00038924)
(63.8403 0.64054 0.00033987)
(63.6055 0.36452 0.0011427)
(63.489 0.12237 0.0010946)
(68.8716 8.7856 0.0064345)
(66.8438 9.5255 0.0035616)
(65.9042 5.1425 0.0017837)
(65.1727 3.9298 0.0010915)
(64.5592 2.7928 0.0006972)
(64.0743 1.9789 0.00044564)
(63.6999 1.3725 0.00028318)
(63.4258 0.90161 0.0002624)
(63.2464 0.51074 0.0010226)
(63.1554 0.16998 0.00099604)
(61.815 8.9087 0.0030477)
(62.714 10.8438 0.0019317)
(63.3153 6.4852 0.00088535)
(63.4601 4.6182 0.00054732)
(63.3923 3.2914 0.00038149)
(63.2376 2.3367 0.00025885)
(63.0654 1.6253 0.00016782)
(62.9141 1.07 0.00017141)
(62.8048 0.60764 0.00090378)
(62.7457 0.20192 0.00090034)
(53.8787 6.8465 0.0010171)
(58.3277 9.1464 0.00089747)
(60.7204 6.2669 0.00031496)
(61.7762 4.5171 0.00018611)
(62.2242 3.3095 0.00014518)
(62.3813 2.406 0.00010646)
(62.4028 1.7026 7.098e-05)
(62.3712 1.1339 8.2656e-05)
(62.3313 0.64905 0.00079491)
(62.3041 0.21554 0.00081123)
(52.5047 2.6535 0.00069705)
(57.0284 4.9275 0.0007337)
(59.4478 4.6664 0.00014535)
(60.6989 3.8025 3.8631e-05)
(61.3468 2.9726 2.3133e-05)
(61.6666 2.2515 1.6721e-05)
(61.8086 1.6364 1.0865e-05)
(61.8602 1.1084 6.581e-06)
(61.8721 0.64075 0.00070169)
(61.87 0.21147 0.00073266)
(55.8736 1.2553 0.00065669)
(57.6579 2.7741 0.00065404)
(59.1539 3.0881 6.948e-05)
(60.1326 2.8112 5.349e-06)
(60.7382 2.3591 3.8949e-07)
(61.0953 1.8762 7.3704e-08)
(61.2935 1.4115 3.7451e-08)
(61.3959 0.97883 2.5645e-08)
(61.4442 0.57457 0.00063488)
(61.4617 0.19079 0.00065998)
(57.5305 0.67336 0.00058484)
(58.3173 1.6447 0.00058351)
(59.2012 2.0369 3.9601e-05)
(59.897 2.0219 2.174e-06)
(60.385 1.8043 1.55e-07)
(60.7051 1.4995 4.0181e-08)
(60.9031 1.1645 1.4454e-08)
(61.0183 0.82555 2.7907e-09)
(61.0799 0.49153 0.00056956)
(61.1056 0.16412 0.00058685)
(58.4814 0.39369 0.00051237)
(58.8625 1.0214 0.00051168)
(59.3702 1.358 2.2165e-05)
(59.8303 1.4369 8.8117e-07)
(60.1881 1.3477 7.7963e-08)
(60.4431 1.1628 2.4446e-08)
(60.6131 0.92847 1.2152e-09)
(60.7193 0.67129 -1.1128e-08)
(60.7799 0.40479 0.00050231)
(60.8066 0.13583 0.00051361)
(59.0628 0.24407 0.00043957)
(59.259 0.6571 0.00043921)
(59.5492 0.91593 1.2104e-05)
(59.84 1.0149 3.7183e-07)
(60.085 0.98947 5.2858e-08)
(60.2714 0.88037 1.6851e-08)
(60.4029 0.71962 -6.0064e-09)
(60.4894 0.5291 -1.9332e-08)
(60.5407 0.32258 0.00043335)
(60.564 0.10873 0.00044032)
(59.4341 0.15682 0.00036658)
(59.5377 0.43213 0.00036639)
(59.7015 0.6216 6.3493e-06)
(59.8774 0.71176 1.776e-07)
(60.0347 0.71463 4.4602e-08)
(60.1606 0.65147 1.3213e-08)
(60.2534 0.54274 -9.8202e-09)
(60.3166 0.40464 -2.4193e-08)
(60.3553 0.24901 0.00036298)
(60.3732 0.084266 0.00036698)
(59.6769 0.10214 0.00029345)
(59.7307 0.28566 0.00029336)
(59.8194 0.41962 3.1232e-06)
(59.9192 0.49173 1.0703e-07)
(60.0124 0.50454 4.176e-08)
(60.0898 0.4686 1.1393e-08)
(60.1487 0.39628 -1.195e-08)
(60.1899 0.29874 -2.7316e-08)
(60.2157 0.18524 0.00029154)
(60.2278 0.062901 0.00029361)
(59.8358 0.065531 0.00022023)
(59.8615 0.18506 0.00022018)
(59.9049 0.27568 1.3909e-06)
(59.9554 0.32823 8.3254e-08)
(60.0038 0.34203 4.0517e-08)
(60.0451 0.32204 1.0238e-08)
(60.0772 0.27542 -1.3425e-08)
(60.1002 0.20939 -2.9662e-08)
(60.1147 0.13064 0.0002193)
(60.1216 0.044499 0.00022023)
(59.9346 0.039245 0.00014693)
(59.9444 0.11156 0.00014691)
(59.9614 0.16769 5.3937e-07)
(59.9814 0.20173 7.5997e-08)
(60.001 0.21238 3.9617e-08)
(60.018 0.20183 9.2192e-09)
(60.0314 0.17395 -1.4727e-08)
(60.0411 0.13303 -3.1673e-08)
(60.0473 0.083394 0.0001465)
(60.0504 0.028494 0.00014682)
(59.9855 0.018567 5.6202e-08)
(59.9876 0.053004 4.4824e-08)
(59.9913 0.080008 -7.3304e-05)
(59.9958 0.096801 -7.341e-05)
(60.0002 0.1025 -7.3431e-05)
(60.004 0.097921 -7.345e-05)
(60.0071 0.084758 -7.3465e-05)
(60.0093 0.065019 -7.3476e-05)
(60.0108 0.040772 -1.0157e-07)
(60.0116 0.01386 -3.8929e-08)
)
;

boundaryField
{
    bump
    {
        type             noSlip;
    }
    outlet
    {
        type             zeroGradient;
    }
    inlet
    {
        type             fixedValue;
        value            uniform (60 0 0);
    }
    side1
    {
        type             empty;
    }
    side2
    {
        type             empty;
    }
    symmetry
    {
        type             symmetry;
    }
    top
    {
        type             symmetry;
    }
}

// ************************************************************************* //
