/*--------------------------------*- C++ -*----------------------------------*\\
| =========                 |                                                 |
| \\      /  F ield         | OpenFOAM: The Open Source CFD Toolbox           |
|  \\    /   O peration     | Version:  v1706                                 |
|   \\  /    A nd           | Web:      www.OpenFOAM.com                      |
|    \\/     M anipulation  |                                                 |
\\*---------------------------------------------------------------------------*/
FoamFile
{
    version     2.0;
    format      ascii;
    class       surfaceScalarField;
    location    "0.2";
    object      mdot_f;
}
// * * * * * * * * * * * * * * * * * * * * * * * * * * * * * * * * * * * * * //

dimensions      [1 0 -1 0 0 0 0]


internalField   nonuniform List<scalar>
560
(
-0.0010455
-0.14445
-0.0014673
-0.14522
-0.0017664
-0.14621
-0.0019506
-0.147
-0.0019356
-0.14751
-0.0017457
-0.14784
-0.0014262
-0.14807
-0.0010111
-0.14824
-0.00052422
-0.14838
-0.1485
-0.0010104
-0.14344
-0.001614
-0.14463
-0.001929
-0.14591
-0.0020456
-0.1469
-0.001988
-0.14758
-0.0017779
-0.14806
-0.0014445
-0.14841
-0.0010235
-0.14868
-0.00053588
-0.14888
-0.14905
-0.0010941
-0.14236
-0.0017914
-0.14398
-0.0021307
-0.14561
-0.0022173
-0.14684
-0.0021258
-0.14771
-0.0018869
-0.14834
-0.0015214
-0.1488
-0.0010765
-0.14916
-0.00056826
-0.14943
-0.14964
-0.0012602
-0.14111
-0.0020393
-0.14324
-0.0024001
-0.14529
-0.0024779
-0.14679
-0.0023464
-0.14787
-0.002065
-0.14866
-0.0016606
-0.14924
-0.0011658
-0.14969
-0.00061154
-0.15002
-0.15028
-0.0014882
-0.13966
-0.0023746
-0.14239
-0.0027655
-0.14495
-0.0028376
-0.14677
-0.0026572
-0.14808
-0.0023172
-0.14905
-0.0018535
-0.14976
-0.0012914
-0.15028
-0.00067654
-0.15067
-0.15097
-0.0017756
-0.13792
-0.0028361
-0.14139
-0.003275
-0.14455
-0.0033265
-0.14677
-0.0030872
-0.14836
-0.0026491
-0.14952
-0.0020876
-0.15036
-0.0014464
-0.15098
-0.00075598
-0.15142
-0.15174
-0.002165
-0.13578
-0.00351
-0.14012
-0.0040237
-0.14409
-0.0040167
-0.14683
-0.0036582
-0.14878
-0.0030713
-0.15014
-0.0023781
-0.15109
-0.0016182
-0.15177
-0.0008315
-0.15225
-0.1526
-0.0028075
-0.133
-0.0046531
-0.13833
-0.0052157
-0.14357
-0.0050064
-0.14708
-0.0043811
-0.14945
-0.0035659
-0.15101
-0.0026928
-0.15202
-0.0017925
-0.15269
-0.00090976
-0.15317
-0.15353
-0.0044227
-0.12862
-0.0069644
-0.13583
-0.0071736
-0.14341
-0.0063738
-0.14791
-0.0052456
-0.15061
-0.0040689
-0.15221
-0.0029561
-0.15317
-0.0019238
-0.15378
-0.00096386
-0.15418
-0.1545
-0.010597
-0.11806
-0.01175
-0.13473
-0.010067
-0.14513
-0.0079754
-0.15004
-0.0060742
-0.15255
-0.0044517
-0.15386
-0.0031
-0.15455
-0.0019498
-0.15495
-0.00094502
-0.15522
-0.15546
0.022328
-0.14041
0.026099
-0.13856
0.026169
-0.14523
0.024587
-0.14848
0.021764
-0.14976
0.018125
-0.15024
0.01396
-0.15042
0.0094835
-0.15049
0.004796
-0.15055
-0.15067
0.012938
-0.15337
0.018399
-0.14403
0.019703
-0.14656
0.018833
-0.14763
0.016807
-0.14774
0.014076
-0.14752
0.010891
-0.14725
0.0074183
-0.14704
0.0037537
-0.14692
-0.14692
0.0071714
-0.16056
0.012033
-0.14887
0.013653
-0.14817
0.013341
-0.14732
0.012016
-0.14643
0.010111
-0.14563
0.0078487
-0.14499
0.0053578
-0.14455
0.0027164
-0.14429
-0.14421
0.0032771
-0.16385
0.0066396
-0.15224
0.0080033
-0.14954
0.0080569
-0.14736
0.0073645
-0.14573
0.0062436
-0.1445
0.0048618
-0.14362
0.0033206
-0.14301
0.0016881
-0.14265
-0.14252
0.00025761
-0.16409
0.0019097
-0.15387
0.0027764
-0.15039
0.0030134
-0.14759
0.0028511
-0.14556
0.0024654
-0.1441
0.001941
-0.14307
0.001333
-0.14239
0.00067872
-0.14199
-0.14183
-0.0021122
-0.16198
-0.0021367
-0.15381
-0.0019516
-0.15052
-0.0017171
-0.14779
-0.0014624
-0.14579
-0.0011938
-0.14435
-0.0009092
-0.14335
-0.00060871
-0.14268
-0.00030483
-0.14227
-0.14211
-0.0042581
-0.1577
-0.0057855
-0.15225
-0.0063524
-0.14994
-0.006235
-0.14788
-0.0056527
-0.14632
-0.0047786
-0.14519
-0.0037096
-0.14438
-0.0025239
-0.14383
-0.001269
-0.1435
-0.14336
-0.0065141
-0.15114
-0.0095859
-0.14911
-0.010918
-0.14855
-0.010896
-0.14787
-0.0099648
-0.14723
-0.0084507
-0.14667
-0.0065636
-0.14622
-0.0044689
-0.14589
-0.0022472
-0.14567
-0.14558
-0.0098707
-0.14125
-0.014767
-0.14416
-0.016545
-0.1467
-0.016244
-0.14811
-0.014672
-0.14875
-0.012346
-0.14896
-0.0095497
-0.14897
-0.0064795
-0.14891
-0.0032601
-0.14885
-0.14882
-0.018664
-0.12254
-0.023735
-0.13903
-0.024274
-0.14612
-0.022723
-0.14962
-0.019993
-0.15142
-0.016579
-0.15234
-0.012725
-0.15279
-0.0085942
-0.15299
-0.0043201
-0.15308
-0.15311
0.01104
-0.13351
0.011874
-0.13979
0.010485
-0.14467
0.0086087
-0.1477
0.0067884
-0.14954
0.0051483
-0.15065
0.0036884
-0.15129
0.0023861
-0.15164
0.0011817
-0.15183
-0.15191
0.0055225
-0.139
0.0074979
-0.14171
0.007492
-0.14459
0.006663
-0.14683
0.0055498
-0.14839
0.0043876
-0.14943
0.003232
-0.1501
0.002126
-0.1505
0.0010687
-0.15073
-0.15083
0.0030945
-0.14205
0.0047842
-0.14334
0.0052645
-0.14502
0.0050218
-0.14654
0.004396
-0.14773
0.0036005
-0.14859
0.0027275
-0.14918
0.0018245
-0.14956
0.00092346
-0.14978
-0.14989
0.0018839
-0.14389
0.0031451
-0.14456
0.0037016
-0.14554
0.0037348
-0.14653
0.0034089
-0.14737
0.0028756
-0.14803
0.0022341
-0.1485
0.0015181
-0.14882
0.00077187
-0.14901
-0.1491
0.0012101
-0.14507
0.0021263
-0.14543
0.002622
-0.146
0.0027539
-0.14662
0.0026024
-0.14719
0.0022517
-0.14765
0.0017806
-0.14799
0.0012294
-0.14824
0.00063145
-0.14839
-0.14846
0.00080377
-0.14585
0.001464
-0.14604
0.0018637
-0.14637
0.0020129
-0.14674
0.0019548
-0.14709
0.0017261
-0.1474
0.0013823
-0.14763
0.00096663
-0.14779
0.00050087
-0.1479
-0.14795
0.00054266
-0.14637
0.0010075
-0.14647
0.0013125
-0.14664
0.0014465
-0.14685
0.0014299
-0.14705
0.0012844
-0.14723
0.0010412
-0.14736
0.00073243
-0.14746
0.00038097
-0.14753
-0.14756
0.0003596
-0.14671
0.00067413
-0.14676
0.00089263
-0.14683
0.00099691
-0.14693
0.0009957
-0.14703
0.00090527
-0.14711
0.00074054
-0.14718
0.00052455
-0.14723
0.0002744
-0.14726
-0.14728
0.00021908
-0.14691
0.00041375
-0.14692
0.00055195
-0.14695
0.00062193
-0.14698
0.00062508
-0.14701
0.00057062
-0.14704
0.00046839
-0.14706
0.00033386
-0.14707
0.00017572
-0.14708
-0.14709
0.00010455
0.00019305
0.00025648
0.00028901
0.00028974
0.00026361
0.00021547
0.00015229
7.7929e-05
)
;

boundaryField
{
    bump
    {
        type             calculated;
        value            uniform 0;
    }
    outlet
    {
        type             calculated;
        value            nonuniform List<scalar>
10
(
0.14803
0.14793
0.14784
0.14774
0.14762
0.14744
0.14711
0.14647
0.14565
0.14536
)
;
    }
    inlet
    {
        type             calculated;
        value            nonuniform List<scalar>
10
(
-0.147
-0.147
-0.147
-0.147
-0.147
-0.147
-0.147
-0.147
-0.147
-0.147
)
;
    }
    side1
    {
        type             calculated;
        value            uniform 0;
    }
    side2
    {
        type             calculated;
        value            uniform 0;
    }
    symmetry
    {
        type             calculated;
        value            uniform 0;
    }
    top
    {
        type             calculated;
        value            uniform 0;
    }
}

// ************************************************************************* //
