/*--------------------------------*- C++ -*----------------------------------*\\
| =========                 |                                                 |
| \\      /  F ield         | OpenFOAM: The Open Source CFD Toolbox           |
|  \\    /   O peration     | Version:  v1706                                 |
|   \\  /    A nd           | Web:      www.OpenFOAM.com                      |
|    \\/     M anipulation  |                                                 |
\\*---------------------------------------------------------------------------*/
FoamFile
{
    version     2.0;
    format      ascii;
    class       volScalarField;
    location    "0.2";
    object      p;
}
// * * * * * * * * * * * * * * * * * * * * * * * * * * * * * * * * * * * * * //

dimensions      [1 -1 -2 0 0 0 0]


internalField   nonuniform List<scalar>
300
(
30.1501
16.0029
8.2878
2.5722
-3.4916
-8.8809
-13.301
-16.6609
-18.9401
-20.1359
59.9107
33.8051
17.3948
5.0092
-7.8182
-19.3884
-28.8911
-36.123
-40.9408
-43.2867
97.806
57.3109
28.0634
5.9677
-15.2321
-33.6745
-48.3959
-59.4087
-66.5791
-69.939
146.7268
87.1392
39.7593
4.4003
-26.8334
-52.7938
-72.7865
-87.1354
-96.3303
-100.6361
208.6976
122.8919
50.227
-2.4825
-45.3862
-79.0478
-103.756
-120.6808
-131.2079
-135.993
282.7714
161.2586
54.5591
-19.4861
-74.811
-114.9879
-142.8622
-161.0853
-171.8204
-176.4538
360.1627
192.4442
42.869
-54.4999
-120.2185
-163.6619
-191.5084
-208.3878
-217.7543
-221.6018
414.3339
193.7521
-1.6278
-117.7344
-186.661
-227.0979
-249.9753
-262.0767
-267.9561
-269.9144
375.5502
119.344
-102.5673
-218.8566
-276.3242
-303.775
-315.6318
-319.6005
-319.9772
-319.1043
61.0259
-105.1689
-278.7104
-356.6934
-382.4571
-386.4946
-382.1658
-375.4503
-369.3929
-365.6309
-864.8924
-530.0721
-515.2884
-511.2794
-489.2439
-464.1442
-441.8882
-424.2392
-412.0621
-405.6864
-1444.014
-907.5236
-735.3844
-648.2365
-581.5572
-530.3636
-492.211
-465.0724
-447.525
-438.7195
-1779.2278
-1195.6911
-917.9203
-763.381
-657.4809
-583.0862
-530.8212
-495.2214
-472.8973
-462.0184
-1893.2169
-1352.9648
-1025.0804
-832.7291
-702.0867
-612.5462
-551.1379
-510.0491
-484.6041
-472.4232
-1802.6464
-1363.0667
-1036.1255
-839.0073
-703.7625
-611.1871
-548.0178
-505.9873
-480.0967
-467.7416
-1516.4659
-1220.1846
-942.1863
-773.4853
-656.2423
-575.1697
-519.2614
-481.7282
-458.497
-447.3875
-1033.8695
-924.6882
-746.6273
-639.5233
-562.2264
-506.5272
-466.571
-438.8796
-421.3286
-412.8985
-394.4867
-508.9637
-476.8136
-457.6474
-436.0383
-415.1366
-396.9067
-382.6074
-372.7973
-367.9536
270.7778
-72.667
-199.8107
-269.6406
-302.7891
-316.5072
-320.4314
-320.1006
-318.5907
-317.5688
662.0515
209.2362
-7.1731
-124.8188
-190.5162
-227.5192
-247.9969
-258.9684
-264.5937
-267.0491
354.8043
187.013
43.9146
-54.9083
-120.3488
-162.8673
-189.9678
-206.6528
-216.3311
-220.9756
213.5724
138.3945
50.5629
-23.2347
-78.8384
-118.6368
-146.1953
-164.3869
-175.4747
-180.924
132.6166
94.6523
41.4654
-10.3322
-53.9562
-87.9493
-113.0727
-130.6127
-141.7295
-147.2626
83.5315
62.4071
29.2255
-6.6513
-39.6305
-67.2158
-88.7325
-104.4421
-114.7319
-119.9188
52.2569
39.5613
18.043
-7.0307
-31.6324
-53.4381
-71.2496
-84.6951
-93.7568
-98.3959
31.5944
23.4227
8.8779
-9.0077
-27.4352
-44.525
-59.027
-70.2773
-78.0194
-82.0203
17.6501
12.0045
1.7099
-11.4466
-25.5186
-39.0111
-50.8213
-60.2051
-66.7439
-70.1266
8.2836
4.0642
-3.6681
-13.7947
-24.9338
-35.885
-45.6909
-53.6205
-59.1948
-62.0628
2.462
-0.97848
-7.2673
-15.6113
-24.9751
-34.3515
-42.8722
-49.8417
-54.7619
-57.2748
-0.15018
-3.2131
-8.8933
-16.4787
-25.0747
-33.7636
-41.7228
-48.2733
-52.9114
-55.31
)
;

boundaryField
{
    bump
    {
        type             zeroGradient;
    }
    outlet
    {
        type             fixedValue;
        value            uniform 0;
    }
    inlet
    {
        type             zeroGradient;
    }
    side1
    {
        type             empty;
    }
    side2
    {
        type             empty;
    }
    symmetry
    {
        type             symmetry;
    }
    top
    {
        type             symmetry;
    }
}

// ************************************************************************* //
