/*--------------------------------*- C++ -*----------------------------------*\\
| =========                 |                                                 |
| \\      /  F ield         | OpenFOAM: The Open Source CFD Toolbox           |
|  \\    /   O peration     | Version:  v1706                                 |
|   \\  /    A nd           | Web:      www.OpenFOAM.com                      |
|    \\/     M anipulation  |                                                 |
\\*---------------------------------------------------------------------------*/
FoamFile
{
    version     2.0;
    format      ascii;
    class       volVectorField;
    location    "0.2";
    object      U;
}
// * * * * * * * * * * * * * * * * * * * * * * * * * * * * * * * * * * * * * //

dimensions      [0 1 -1 0 0 0 0]


internalField   nonuniform List<vector>
300
(
(59.3292 -0.65418 0.00026926)
(59.4504 -0.43456 0.00031622)
(59.7829 -0.55124 -0.00018622)
(60.0435 -0.77912 -0.00017331)
(60.1784 -0.83498 -0.00015567)
(60.2539 -0.80191 -0.00013139)
(60.3036 -0.69685 -9.9602e-05)
(60.3422 -0.54061 -4.6002e-05)
(60.3779 -0.34653 0.00063933)
(60.4199 -0.1216 0.00068178)
(58.4705 -0.77516 0.00029339)
(58.9725 -0.46861 0.00034078)
(59.5221 -0.58845 -0.00013814)
(59.9412 -0.83171 -0.00012875)
(60.228 -0.86998 -0.00011107)
(60.4278 -0.82466 -8.3952e-05)
(60.5741 -0.71258 -4.6918e-05)
(60.686 -0.55121 1.4435e-05)
(60.7733 -0.35456 0.00070345)
(60.8478 -0.12554 0.00075489)
(57.9262 -0.96348 0.00018089)
(58.6332 -0.56933 0.00022195)
(59.3434 -0.65289 -0.0002339)
(59.874 -0.91993 -0.00023096)
(60.2546 -0.94932 -0.00021437)
(60.5299 -0.88808 -0.00018462)
(60.7341 -0.7613 -0.00014198)
(60.8914 -0.58581 -7.233e-05)
(61.0101 -0.37607 0.00062024)
(61.1039 -0.13356 0.00068184)
(57.2785 -1.2221 0.00016845)
(58.2278 -0.75606 0.00019085)
(59.1458 -0.7693 -0.00024635)
(59.8171 -1.0558 -0.00025536)
(60.3027 -1.0756 -0.00024271)
(60.6589 -0.99116 -0.00021173)
(60.9228 -0.84128 -0.00016407)
(61.1238 -0.64266 -8.6346e-05)
(61.2736 -0.40909 0.00060988)
(61.3877 -0.14461 0.00068252)
(56.4955 -1.5642 0.00020509)
(57.75 -1.0593 0.00018966)
(58.9292 -0.9613 -0.00023842)
(59.7715 -1.2515 -0.00026798)
(60.3765 -1.2532 -0.00026407)
(60.8205 -1.1356 -0.00023475)
(61.1455 -0.95022 -0.00018385)
(61.3868 -0.71827 -9.937e-05)
(61.5653 -0.45349 0.00059998)
(61.6988 -0.15949 0.00068402)
(55.5377 -2.0136 0.00032219)
(57.1875 -1.5316 0.00024018)
(58.6984 -1.2633 -0.00019533)
(59.7487 -1.5256 -0.00025835)
(60.4931 -1.4916 -0.00027075)
(61.0292 -1.3239 -0.000248)
(61.4141 -1.0857 -0.00019737)
(61.6935 -0.80841 -0.00010904)
(61.8951 -0.50474 0.00059191)
(62.0428 -0.17594 0.00068678)
(54.3619 -2.6058 0.00056397)
(56.5241 -2.2548 0.00037403)
(58.471 -1.7294 -9.5364e-05)
(59.7799 -1.9077 -0.00021086)
(60.6838 -1.8022 -0.00025113)
(61.309 -1.5553 -0.00024286)
(61.7439 -1.2458 -0.00019859)
(62.0501 -0.90901 -0.00011162)
(62.2659 -0.5568 0.00058782)
(62.4236 -0.19125 0.00069152)
(52.895 -3.3874 0.00099117)
(55.7474 -3.3588 0.00063604)
(58.3021 -2.4542 9.2815e-05)
(59.9327 -2.4387 -0.00010291)
(61.0013 -2.1936 -0.00018833)
(61.6986 -1.8213 -0.00020685)
(62.1569 -1.4147 -0.00017876)
(62.4634 -1.0068 -0.00010149)
(62.6767 -0.60476 0.00059079)
(62.8352 -0.20497 0.00069917)
(50.9537 -4.4471 0.0016862)
(54.9301 -5.0969 0.0010899)
(58.3525 -3.5979 0.00041378)
(60.3353 -3.1591 9.7268e-05)
(61.5193 -2.6565 -5.8909e-05)
(62.2308 -2.0964 -0.00012263)
(62.6637 -1.5633 -0.00012576)
(62.9372 -1.0787 -7.0885e-05)
(63.1231 -0.63361 0.00060502)
(63.265 -0.21139 0.00071096)
(49.4764 -6.0661 0.0028213)
(54.7059 -8.0611 0.0018937)
(58.9484 -5.3456 0.00098044)
(61.105 -4.0393 0.00047406)
(62.2498 -3.1168 0.00020291)
(62.87 -2.3177 5.9808e-05)
(63.2159 -1.6522 -4.6615e-06)
(63.424 -1.1003 3.0887e-06)
(63.566 -0.62603 0.00064294)
(63.6855 -0.204 0.00073067)
(56.6071 -8.114 0.0044984)
(57.9192 -11.9741 0.0029851)
(61.3551 -7.5361 0.0017563)
(62.8532 -4.9537 0.0010239)
(63.4946 -3.499 0.00061999)
(63.7798 -2.45 0.00037487)
(63.9029 -1.6697 0.00021648)
(63.961 -1.0736 0.00014557)
(64.0059 -0.59381 0.00071966)
(64.0665 -0.1914 0.00076462)
(65.8247 -6.7863 0.0068122)
(62.3199 -11.6983 0.0049093)
(64.0177 -7.1659 0.0029939)
(64.5957 -4.4766 0.0018464)
(64.6709 -3.0653 0.0011806)
(64.6005 -2.0964 0.00076463)
(64.5018 -1.4013 0.00048566)
(64.4205 -0.88683 0.00032591)
(64.3797 -0.48531 0.0008469)
(64.3893 -0.15573 0.00080489)
(71.4555 -4.0992 0.0091265)
(66.0797 -8.9731 0.0066796)
(66.2685 -5.8517 0.0041462)
(66.0179 -3.4861 0.0026283)
(65.6302 -2.3236 0.0017046)
(65.2716 -1.5501 0.0011222)
(64.987 -1.015 0.00073516)
(64.7876 -0.63118 0.0004952)
(64.6725 -0.33921 0.0009564)
(64.6376 -0.10682 0.00083142)
(74.6737 -0.94581 0.010184)
(68.9897 -4.9455 0.0073039)
(68.0195 -3.8574 0.0046467)
(67.0888 -2.0788 0.0030508)
(66.3265 -1.3306 0.0020446)
(65.7415 -0.84223 0.0013814)
(65.3127 -0.52381 0.0009212)
(65.0206 -0.31135 0.00062476)
(64.8474 -0.15879 0.0010306)
(64.782 -0.04678 0.00084128)
(75.7873 2.1935 0.010393)
(70.6267 -0.45366 0.0069028)
(69.0027 -1.4054 0.0043782)
(67.6561 -0.38984 0.0029059)
(66.6615 -0.15984 0.0019715)
(65.9378 -0.022662 0.0013416)
(65.4255 0.04003 0.00089567)
(65.0811 0.056908 0.00061394)
(64.8747 0.04934 0.0010109)
(64.7929 0.021956 0.00081723)
(74.9561 5.0151 0.01055)
(70.846 3.9376 0.0064557)
(69.081 1.3009 0.0039223)
(67.6267 1.4143 0.0025421)
(66.5801 1.0939 0.0016943)
(65.8294 0.84851 0.001133)
(65.3039 0.63469 0.0007425)
(64.9514 0.44408 0.00051521)
(64.7395 0.26908 0.00092711)
(64.652 0.095292 0.00077119)
(72.2066 7.2275 0.0098073)
(69.4477 7.6797 0.0058119)
(68.0971 3.9172 0.0033398)
(66.8998 3.1294 0.0020856)
(66.027 2.2905 0.0013468)
(65.3921 1.6773 0.00087345)
(64.9407 1.2004 0.00055419)
(64.6316 0.81219 0.0003909)
(64.4424 0.47806 0.00082317)
(64.3603 0.16592 0.0007178)
(67.4747 8.4781 0.0068198)
(66.4594 10.2234 0.0040858)
(66.0528 5.996 0.0022496)
(65.4887 4.4775 0.0013976)
(65.0234 3.2402 0.00091323)
(64.6447 2.3395 0.00059533)
(64.3514 1.6562 0.00037358)
(64.1382 1.111 0.00027497)
(64.0004 0.64788 0.00073029)
(63.9389 0.22291 0.00066745)
(60.7858 8.3947 0.0028827)
(62.1542 10.9283 0.0018957)
(63.2179 7.035 0.0010234)
(63.6089 5.1517 0.00069132)
(63.7204 3.7581 0.00050043)
(63.6914 2.7318 0.00034383)
(63.6109 1.9416 0.00021689)
(63.5267 1.3052 0.00017118)
(63.46 0.76011 0.00064952)
(63.4281 0.25933 0.00062136)
(53.4748 6.4873 0.00076205)
(57.808 9.0535 0.00069584)
(60.4525 6.5798 0.00030636)
(61.7622 4.9712 0.00023216)
(62.4068 3.7562 0.0001916)
(62.71 2.8024 0.00013877)
(62.8371 2.0253 8.7939e-05)
(62.8799 1.3747 7.7555e-05)
(62.887 0.80327 0.00057955)
(62.8845 0.27141 0.00057981)
(52.3895 2.55 0.00051375)
(56.7244 4.8685 0.00053842)
(59.1802 4.8091 9.776e-05)
(60.5899 4.0978 4.0889e-05)
(61.3968 3.3082 3.1966e-05)
(61.8576 2.5731 2.4709e-05)
(62.1111 1.9125 1.739e-05)
(62.2472 1.3207 1.2218e-05)
(62.3182 0.77929 0.00053088)
(62.3477 0.26152 0.00054816)
(55.7771 1.237 0.00051673)
(57.4757 2.7912 0.00050756)
(58.9824 3.2167 4.5052e-05)
(60.0577 3.0417 7.7278e-06)
(60.7771 2.6281 5.7536e-06)
(61.2425 2.1432 5.6605e-06)
(61.5326 1.6479 5.6416e-06)
(61.7046 1.163 5.6296e-06)
(61.8014 0.69559 0.00050188)
(61.8454 0.23485 0.0005186)
(57.4349 0.68278 0.00048216)
(58.1965 1.6933 0.00047759)
(59.0916 2.1568 3.0638e-05)
(59.8512 2.2116 6.9199e-06)
(60.4194 2.0275 6.0031e-06)
(60.8189 1.7244 5.9451e-06)
(61.0891 1.3673 5.9117e-06)
(61.2588 0.98634 5.8832e-06)
(61.3583 0.59661 0.00047057)
(61.4059 0.20178 0.00048322)
(58.4006 0.41243 0.00044121)
(58.7784 1.0808 0.00043888)
(59.2997 1.469 2.1349e-05)
(59.8027 1.5983 6.4709e-06)
(60.2174 1.5367 6.0376e-06)
(60.5299 1.3535 5.9877e-06)
(60.7529 1.102 5.9437e-06)
(60.9012 0.81082 5.9033e-06)
(60.9905 0.49535 0.00043272)
(61.0331 0.16768 0.00044186)
(59.0019 0.2637 0.00039384)
(59.2024 0.71587 0.00039265)
(59.5055 1.0166 1.5159e-05)
(59.8249 1.1528 5.992e-06)
(60.1096 1.1491 5.7759e-06)
(60.3358 1.042 5.7258e-06)
(60.5035 0.86632 5.6752e-06)
(60.6208 0.6475 5.6277e-06)
(60.6931 0.40014 0.00038795)
(60.727 0.13601 0.00039422)
(59.3948 0.17423 0.00034009)
(59.5028 0.48453 0.00033951)
(59.677 0.70882 1.0754e-05)
(59.8716 0.82683 5.2939e-06)
(60.054 0.84623 5.1735e-06)
(60.2059 0.78508 5.1208e-06)
(60.3218 0.66327 5.0668e-06)
(60.4044 0.50157 5.0167e-06)
(60.4573 0.31284 0.00033625)
(60.4825 0.10673 0.00034027)
(59.6573 0.11646 0.00028032)
(59.7137 0.32829 0.00028005)
(59.8093 0.48948 7.374e-06)
(59.9201 0.58254 4.3149e-06)
(60.0271 0.60706 4.2343e-06)
(60.1198 0.57251 4.1789e-06)
(60.1918 0.49042 4.1243e-06)
(60.2434 0.37405 4.0752e-06)
(60.2773 0.23434 0.00027796)
(60.2934 0.080096 0.00028032)
(59.8309 0.075715 0.0002152)
(59.8579 0.21534 0.00021508)
(59.9044 0.32513 4.6402e-06)
(59.9601 0.3921 3.1006e-06)
(60.0146 0.41319 3.0347e-06)
(60.0626 0.39381 2.978e-06)
(60.1007 0.34065 2.9253e-06)
(60.1285 0.2616 2.8804e-06)
(60.1466 0.16489 0.00021385)
(60.1548 0.056612 0.00021506)
(59.9381 0.044505 0.00014582)
(59.9473 0.12788 0.00014577)
(59.9647 0.19464 2.4497e-06)
(59.9864 0.23636 1.8079e-06)
(60.0074 0.25083 1.7476e-06)
(60.0256 0.24027 1.6924e-06)
(60.0402 0.20856 1.644e-06)
(60.051 0.16075 1.6053e-06)
(60.0584 0.10203 0.0001451)
(60.0623 0.035276 0.00014559)
(59.9885 0.019643 8.7256e-08)
(59.9896 0.055889 6.9853e-08)
(59.9932 0.084359 -7.2622e-05)
(59.9977 0.10235 -7.2794e-05)
(60.0021 0.10853 -7.2828e-05)
(60.0056 0.10371 -7.2859e-05)
(60.0084 0.089739 -7.2884e-05)
(60.0104 0.068838 -7.2904e-05)
(60.0121 0.043105 -1.7831e-07)
(60.0136 0.014585 -6.5632e-08)
)
;

boundaryField
{
    bump
    {
        type             noSlip;
    }
    outlet
    {
        type             zeroGradient;
    }
    inlet
    {
        type             fixedValue;
        value            uniform (60 0 0);
    }
    side1
    {
        type             empty;
    }
    side2
    {
        type             empty;
    }
    symmetry
    {
        type             symmetry;
    }
    top
    {
        type             symmetry;
    }
}

// ************************************************************************* //
