/*--------------------------------*- C++ -*----------------------------------*\\
| =========                 |                                                 |
| \\      /  F ield         | OpenFOAM: The Open Source CFD Toolbox           |
|  \\    /   O peration     | Version:  v1706                                 |
|   \\  /    A nd           | Web:      www.OpenFOAM.com                      |
|    \\/     M anipulation  |                                                 |
\\*---------------------------------------------------------------------------*/
FoamFile
{
    version     2.0;
    format      ascii;
    class       volScalarField;
    location    "4";
    object      T;
}
// * * * * * * * * * * * * * * * * * * * * * * * * * * * * * * * * * * * * * //

dimensions      [0 0 0 1 0 0 0]


internalField   nonuniform List<scalar>
400
(
399.8522
399.5613
399.2813
399.0191
398.7813
398.5737
398.4014
398.2684
398.1779
398.132
398.1317
398.1772
398.2672
398.3998
398.5719
398.7793
399.0171
399.2794
399.5599
399.8516
399.5586
398.69
397.854
397.0714
396.3616
395.7422
395.2279
394.8311
394.5611
394.4242
394.4235
394.5591
394.8279
395.2237
395.7372
396.3562
397.0659
397.8491
398.6864
399.5571
399.2676
397.8267
396.4399
395.1421
393.9654
392.9387
392.0866
391.4293
390.9822
390.7555
390.7546
390.9794
391.4248
392.0806
392.9316
393.9577
395.1344
396.433
397.8216
399.2656
398.9808
396.9756
395.0464
393.2415
391.6058
390.1792
388.9958
388.0832
387.4627
387.1483
387.1472
387.4594
388.0779
388.9888
390.171
391.5969
393.2327
395.0385
396.9699
398.9785
398.6991
396.1396
393.6779
391.3762
389.2914
387.4744
385.968
384.8071
384.0182
383.6187
383.6175
384.0147
384.8016
385.9608
387.4659
389.2823
391.3671
393.6699
396.1338
398.6967
398.4224
395.3186
392.3349
389.5471
387.0244
384.8277
383.0082
381.6073
380.6559
380.1745
380.1734
380.6526
381.6021
383.0014
384.8197
387.0158
389.5387
392.3274
395.3131
398.4201
398.1495
394.5093
391.0123
387.7484
384.7987
382.2336
380.1119
378.4803
377.3733
376.8136
376.8127
377.3705
378.4758
380.106
382.2267
384.7912
387.741
391.0058
394.5045
398.1475
397.8777
393.7036
389.6979
385.965
382.5979
379.6757
377.2633
375.4112
374.1563
373.5226
373.5218
374.1541
375.4077
377.2587
379.6702
382.592
385.9593
389.6928
393.6997
397.8761
397.6023
392.8879
388.3709
384.1712
380.3935
377.1245
374.4334
372.3723
370.9784
370.2754
370.2749
370.9769
372.3699
374.4303
377.1209
380.3895
384.1673
388.3673
392.8852
397.6011
397.3157
392.0408
386.9986
382.327
378.1419
374.5359
371.5791
369.3223
367.8
367.0336
367.0334
367.7993
369.3212
371.5778
374.5343
378.1401
382.3251
386.9968
392.0393
397.3149
397.0065
391.1301
385.5331
380.3747
375.7817
371.8487
368.642
366.206
364.5688
363.7466
363.7466
364.569
366.2063
368.6423
371.849
375.7821
380.3749
385.5331
391.1298
397.0063
396.6577
390.108
383.9048
378.2333
373.229
368.9819
365.547
362.9549
361.2212
360.3533
360.3536
361.2222
362.9564
365.549
368.9843
373.2314
378.2356
383.9065
390.1089
396.6579
396.2429
388.9023
382.0121
375.7895
370.3721
365.8332
362.2033
359.4887
357.685
356.7856
356.7862
357.6867
359.4914
362.2068
365.8373
370.3764
375.7936
382.0155
388.9044
396.2435
395.7192
387.4004
379.7045
372.885
367.0645
362.2761
358.5053
355.7191
353.8836
352.9731
352.9739
353.8859
355.7227
358.5101
362.2816
367.0703
372.8906
379.7092
387.4034
395.7202
395.0125
385.417
376.7525
369.298
363.1175
358.1609
354.3376
351.5564
349.7439
348.8505
348.8514
349.7466
351.5607
354.3432
358.1675
363.1244
369.3047
376.7582
385.4208
395.0138
393.9791
382.6285
372.7964
364.7176
358.2951
353.3204
349.5846
346.9196
345.2055
344.3669
344.3679
345.2084
346.9242
349.5906
353.3275
358.3027
364.7249
372.8026
382.6328
393.9806
392.2998
378.4286
367.2622
358.7199
352.3217
347.5877
344.1494
341.7527
340.234
339.4973
339.4983
340.2368
341.7572
344.1553
347.5947
352.3291
358.7271
367.2685
378.4329
392.3014
389.1277
371.6098
359.2447
350.7697
344.922
340.8376
337.9843
336.045
334.8354
334.2536
334.2544
334.8378
336.0489
337.9894
340.8437
344.9286
350.7761
359.2503
371.6138
389.1292
381.7554
359.7014
347.4401
340.3326
335.9332
333.06
331.1327
329.8544
329.0682
328.6929
328.6935
329.0699
329.8572
331.1364
333.0643
335.9378
340.3372
347.4442
359.7043
381.7566
359.9646
338.0389
330.545
327.2731
325.5243
324.4606
323.7713
323.322
323.0483
322.9182
322.9184
323.0489
323.3231
323.7727
324.4622
325.5261
327.2749
330.5467
338.0401
359.9651
)
;

boundaryField
{
    movingWall
    {
        type             fixedValue;
        value            uniform 320;
    }
    fixedWalls
    {
        type             fixedValue;
        value            uniform 400;
    }
    frontAndBack
    {
        type             empty;
    }
}

// ************************************************************************* //
